LIGGGHTS (Version LIGGGHTS-PUBLIC 3.8.0, compiled 2022-11-07-16:55:38 by serperd1, git commit 86544c3f1215bc9744d7929e3eacf53ba086af9e)
units si #
dimension 3 #
newton off #
boundary f f f #
atom_style sphere #
pair_style gran model hertz tangential history #
communicate single vel yes #
region outer_basket cylinder y 0 0 0.15 -0.15 0.15 #
create_box 3 outer_basket #
Created orthogonal box = (-0.15 -0.15 -0.15) to (0.15 0.15 0.15)
  2 by 4 by 5 MPI processor grid
variable my_omega equal 157.0796 #
fix cone_mesh all mesh/surface file cone.stl type 3 scale 1 #
fix rotating_wall_1 all move/mesh mesh cone_mesh rotate/variable origin 0 0 0 axis 0 1 0 omega v_my_omega #
fix filter_mesh_walls all wall/gran model hertz tangential history primitive type 2 ycylinder_filtermesh 0.069 0 0 2 8 -0.0628 0 0.031768 0.018407 0.056768 0.043407 shear x 10.8385 #

fix inlet_cyl_wall_mesh all mesh/surface file in_cyl.stl type 3 scale 1 #
fix top_cyl_wall_mesh all mesh/surface file top_cyl.stl type 3 scale 1 #
fix rotating_wall_4 all move/mesh mesh top_cyl_wall_mesh rotate/variable origin 0 0 0 axis 0 1 0 omega v_my_omega #
fix bot_cyl_wall_mesh all mesh/surface file bot_cyl.stl type 3 scale 1 #
fix rotating_wall_5 all move/mesh mesh bot_cyl_wall_mesh rotate/variable origin 0 0 0 axis 0 1 0 omega v_my_omega #
fix bot_disk_wall_mesh all mesh/surface file bottom_disk.stl type 3 scale 1 #
fix rotating_wall_6 all move/mesh mesh bot_disk_wall_mesh rotate/variable origin 0 0 0 axis 0 1 0 omega v_my_omega #
fix top_disk_wall_mesh all mesh/surface file top_disk.stl type 3 scale 1 #
fix rotating_wall_7 all move/mesh mesh top_disk_wall_mesh rotate/variable origin 0 0 0 axis 0 1 0 omega v_my_omega #
fix GMSH_mesh_walls all wall/gran model hertz tangential history mesh n_meshes 6 meshes cone_mesh top_cyl_wall_mesh bot_cyl_wall_mesh bot_disk_wall_mesh inlet_cyl_wall_mesh top_disk_wall_mesh #
fix Young_mod all property/global youngsModulus peratomtype 375000000 46000000 1000000000 #
fix Poisson_rat all property/global poissonsRatio peratomtype 0.32 0.42 0.29 #
fix Coeff_rest all property/global coefficientRestitution peratomtypepair 3 0.15 0.32 0.475 0.32 0.49 0.645 0.475 0.645 0.8 #
fix Coeff_fric all property/global coefficientFriction peratomtypepair 3 0.04 0.145 0.12 0.145 0.25 0.225 0.12 0.225 0.2 #

neighbor 0.0006561 bin #
neigh_modify delay 0 one 100000 page 5000000 #
fix r_0to10p all particletemplate/sphere 12345787 atom_type 1 density constant 2650 radius constant 0.000105 #
fix r_10to50p all particletemplate/sphere 15485863 atom_type 1 density constant 2650 radius constant 0.000291 #
fix r_50to90p all particletemplate/sphere 15485867 atom_type 1 density constant 2650 radius constant 0.0010582 #
fix r_90to100p all particletemplate/sphere 32452843 atom_type 1 density constant 2650 radius constant 0.0016402 #
fix prob_par all particledistribution/discrete 32452867 4 r_0to10p 0.1 r_10to50p 0.4 r_50to90p 0.4 r_90to100p 0.1 #
pair_coeff * * #
timestep 8.1e-08 #

fix nve_group all nve/sphere #
fix grav_fix all gravity 6.1081 vector 0.017 -0.0033 0 -1 0 #
fix cent_fix all centrifugal 157.0796 0.017 -0.0033 0.069 #

variable step equal step #
variable mycount equal count(all) #
fix print_amount_of_atoms all print 25 "${step} ${mycount}" file numatoms.txt screen no #
run 0 #
Setting up run at Wed Jan  4 04:39:10 2023

Memory usage per processor = 954.231 Mbytes
    Step    Atoms         KinEng            CPU 
       0        0              0              0 
Loop time of 7.31596e-05 on 40 procs for 0 steps with 0 atoms, finish time Wed Jan  4 04:39:10 2023


Pair  time (%) = 0 (0)
Neigh time (%) = 0 (0)
Comm  time (%) = 0 (0)
Outpt time (%) = 0 (0)
Other time (%) = 7.31596e-05 (100)

Nlocal:    0 ave 0 max 0 min
Histogram: 40 0 0 0 0 0 0 0 0 0
Nghost:    0 ave 0 max 0 min
Histogram: 40 0 0 0 0 0 0 0 0 0
Neighs:    0 ave 0 max 0 min
Histogram: 40 0 0 0 0 0 0 0 0 0

Total # of neighbors = 0
Neighbor list builds = 0
Dangerous builds = 0
run 1 #
Setting up run at Wed Jan  4 04:39:10 2023

Memory usage per processor = 954.231 Mbytes
    Step    Atoms         KinEng            CPU 
       0        0              0              0 
       1        0              0    0.009799705 
Loop time of 0.00981842 on 40 procs for 1 steps with 0 atoms, finish time Wed Jan  4 04:39:10 2023


Pair  time (%) = 2.93695e-06 (0.0299126)
Neigh time (%) = 0 (0)
Comm  time (%) = 0.000239245 (2.4367)
Outpt time (%) = 0.000127719 (1.30081)
Other time (%) = 0.00944852 (96.2326)

Nlocal:    0 ave 0 max 0 min
Histogram: 40 0 0 0 0 0 0 0 0 0
Nghost:    0 ave 0 max 0 min
Histogram: 40 0 0 0 0 0 0 0 0 0
Neighs:    0 ave 0 max 0 min
Histogram: 40 0 0 0 0 0 0 0 0 0

Total # of neighbors = 0
Neighbor list builds = 0
Dangerous builds = 0
read_dump dump.atom_info_1 1 x y z radius vx vy vz box no add yes replace no #
  orthogonal box = (-0.15 -0.15 -0.15) to (0.15 0.15 0.15)
  0 atoms before read
  305 atoms in snapshot
  0 atoms purged
  0 atoms replaced
  0 atoms trimmed
  305 atoms added
  305 atoms after read
set atom * type 1 density 2650 vy -0.01175 #
  305 settings made for type
  305 settings made for density
  305 settings made for vy
run 1 #
Setting up run at Wed Jan  4 04:39:11 2023

Memory usage per processor = 958.583 Mbytes
    Step    Atoms         KinEng            CPU 
       1      305  2.0462467e-07              0 
       2      305  2.4125357e-07    0.009203081 
Loop time of 0.00922036 on 40 procs for 1 steps with 305 atoms, finish time Wed Jan  4 04:39:11 2023


Pair  time (%) = 2.11155e-06 (0.022901)
Neigh time (%) = 0 (0)
Comm  time (%) = 5.09215e-06 (0.0552272)
Outpt time (%) = 0.000173368 (1.88028)
Other time (%) = 0.00903979 (98.0416)

Nlocal:    7.625 ave 134 max 0 min
Histogram: 36 2 0 0 0 0 0 0 0 2
Nghost:    5.125 ave 59 max 0 min
Histogram: 36 0 0 0 0 0 0 2 0 2
Neighs:    2.375 ave 54 max 0 min
Histogram: 37 1 0 0 0 1 0 0 0 1

Total # of neighbors = 95
Ave neighs/atom = 0.311475
Neighbor list builds = 0
Dangerous builds = 0
write_dump all custom dump.atom_info_ac_* id type x y z radius vx vy vz density #
run 123456
Setting up run at Wed Jan  4 04:39:11 2023

Memory usage per processor = 958.583 Mbytes
    Step    Atoms         KinEng            CPU 
       2      305  2.4125357e-07              0 
  123458      305  6.0816412e-05      1230.1621 
Loop time of 1230.16 on 40 procs for 123456 steps with 305 atoms, finish time Wed Jan  4 04:59:41 2023


Pair  time (%) = 0.241828 (0.0196582)
Neigh time (%) = 0.0566226 (0.00460285)
Comm  time (%) = 0.417256 (0.0339188)
Outpt time (%) = 0.000735124 (5.97583e-05)
Other time (%) = 1229.45 (99.9418)

Nlocal:    7.625 ave 136 max 0 min
Histogram: 36 2 0 0 0 0 0 0 1 1
Nghost:    5.15 ave 59 max 0 min
Histogram: 36 0 0 0 0 0 0 2 0 2
Neighs:    2.5 ave 57 max 0 min
Histogram: 36 2 0 0 1 0 0 0 0 1

Total # of neighbors = 100
Ave neighs/atom = 0.327869
Neighbor list builds = 330
Dangerous builds = 0
write_dump all custom dump.atom_info_ac_* id type x y z radius vx vy vz density #
run 123456
Setting up run at Wed Jan  4 04:59:41 2023

Memory usage per processor = 958.583 Mbytes
    Step    Atoms         KinEng            CPU 
  123458      305  6.0816412e-05              0 
  246914      305  4.3842796e-05      1234.0081 
Loop time of 1234.01 on 40 procs for 123456 steps with 305 atoms, finish time Wed Jan  4 05:20:15 2023


Pair  time (%) = 0.241436 (0.0195652)
Neigh time (%) = 0.0575849 (0.00466649)
Comm  time (%) = 0.438965 (0.0355723)
Outpt time (%) = 0.00070434 (5.70774e-05)
Other time (%) = 1233.27 (99.9401)

Nlocal:    7.625 ave 138 max 0 min
Histogram: 36 2 0 0 0 0 0 0 1 1
Nghost:    5.125 ave 56 max 0 min
Histogram: 36 0 0 0 0 0 0 0 2 2
Neighs:    2.475 ave 57 max 0 min
Histogram: 36 2 0 0 1 0 0 0 0 1

Total # of neighbors = 99
Ave neighs/atom = 0.32459
Neighbor list builds = 330
Dangerous builds = 0
write_dump all custom dump.atom_info_ac_* id type x y z radius vx vy vz density #
run 123456
Setting up run at Wed Jan  4 05:20:15 2023

Memory usage per processor = 958.583 Mbytes
    Step    Atoms         KinEng            CPU 
  246914      305  4.3842796e-05              0 
  370370      305  0.00038250452        1234.38 
Loop time of 1234.38 on 40 procs for 123456 steps with 305 atoms, finish time Wed Jan  4 05:40:49 2023


Pair  time (%) = 0.243553 (0.0197308)
Neigh time (%) = 0.0530116 (0.0042946)
Comm  time (%) = 0.555006 (0.0449623)
Outpt time (%) = 0.000687731 (5.57147e-05)
Other time (%) = 1233.53 (99.931)

Nlocal:    7.625 ave 134 max 0 min
Histogram: 36 0 2 0 0 0 0 0 1 1
Nghost:    5.025 ave 61 max 0 min
Histogram: 36 0 0 0 0 0 0 2 1 1
Neighs:    2.475 ave 57 max 0 min
Histogram: 36 2 0 0 1 0 0 0 0 1

Total # of neighbors = 99
Ave neighs/atom = 0.32459
Neighbor list builds = 330
Dangerous builds = 0
write_dump all custom dump.atom_info_ac_* id type x y z radius vx vy vz density #
run 123456
Setting up run at Wed Jan  4 05:40:49 2023

Memory usage per processor = 958.583 Mbytes
    Step    Atoms         KinEng            CPU 
  370370      305  0.00038250452              0 
  493826      305   0.0002185812       1232.256 
Loop time of 1232.26 on 40 procs for 123456 steps with 305 atoms, finish time Wed Jan  4 06:01:22 2023


Pair  time (%) = 0.243831 (0.0197874)
Neigh time (%) = 0.0516034 (0.00418771)
Comm  time (%) = 0.619223 (0.0502512)
Outpt time (%) = 0.000691209 (5.60929e-05)
Other time (%) = 1231.34 (99.9257)

Nlocal:    7.625 ave 134 max 0 min
Histogram: 36 0 2 0 0 0 0 0 1 1
Nghost:    5.025 ave 59 max 0 min
Histogram: 36 0 0 0 0 0 0 2 0 2
Neighs:    2.425 ave 54 max 0 min
Histogram: 36 1 1 0 1 0 0 0 0 1

Total # of neighbors = 97
Ave neighs/atom = 0.318033
Neighbor list builds = 330
Dangerous builds = 0
write_dump all custom dump.atom_info_ac_* id type x y z radius vx vy vz density #
run 123456
Setting up run at Wed Jan  4 06:01:22 2023

Memory usage per processor = 958.583 Mbytes
    Step    Atoms         KinEng            CPU 
  493826      305   0.0002185812              0 
  617282      305    0.001796919      1231.3923 
Loop time of 1231.39 on 40 procs for 123456 steps with 305 atoms, finish time Wed Jan  4 06:21:53 2023


Pair  time (%) = 0.245434 (0.0199314)
Neigh time (%) = 0.0507834 (0.00412406)
Comm  time (%) = 0.631576 (0.0512896)
Outpt time (%) = 0.000632072 (5.13298e-05)
Other time (%) = 1230.46 (99.9246)

Nlocal:    7.625 ave 134 max 0 min
Histogram: 36 0 2 0 0 0 0 1 0 1
Nghost:    4.975 ave 59 max 0 min
Histogram: 36 0 0 0 0 0 1 1 0 2
Neighs:    2.5 ave 55 max 0 min
Histogram: 36 1 1 0 1 0 0 0 0 1

Total # of neighbors = 100
Ave neighs/atom = 0.327869
Neighbor list builds = 330
Dangerous builds = 0
write_dump all custom dump.atom_info_ac_* id type x y z radius vx vy vz density #
run 123456
Setting up run at Wed Jan  4 06:21:53 2023

Memory usage per processor = 958.583 Mbytes
    Step    Atoms         KinEng            CPU 
  617282      305    0.001796919              0 
  740738      305  9.1153157e-05      1224.0821 
Loop time of 1224.08 on 40 procs for 123456 steps with 305 atoms, finish time Wed Jan  4 06:42:17 2023


Pair  time (%) = 0.242121 (0.0197798)
Neigh time (%) = 0.0551417 (0.00450474)
Comm  time (%) = 0.494365 (0.0403866)
Outpt time (%) = 0.000686891 (5.61148e-05)
Other time (%) = 1223.29 (99.9353)

Nlocal:    7.625 ave 133 max 0 min
Histogram: 36 0 2 0 0 0 0 1 0 1
Nghost:    5 ave 58 max 0 min
Histogram: 36 0 0 0 0 0 1 1 0 2
Neighs:    2.4 ave 54 max 0 min
Histogram: 36 1 1 0 1 0 0 0 0 1

Total # of neighbors = 96
Ave neighs/atom = 0.314754
Neighbor list builds = 330
Dangerous builds = 0
write_dump all custom dump.atom_info_ac_* id type x y z radius vx vy vz density #
run 123456
Setting up run at Wed Jan  4 06:42:17 2023

Memory usage per processor = 958.583 Mbytes
    Step    Atoms         KinEng            CPU 
  740738      305  9.1153157e-05              0 
  864194      304     0.05687259      1237.4785 
Loop time of 1237.52 on 40 procs for 123456 steps with 304 atoms, finish time Wed Jan  4 07:02:55 2023


Pair  time (%) = 0.240784 (0.019457)
Neigh time (%) = 0.291324 (0.023541)
Comm  time (%) = 0.828425 (0.0669425)
Outpt time (%) = 0.000481702 (3.89249e-05)
Other time (%) = 1236.16 (99.89)

Nlocal:    7.6 ave 131 max 0 min
Histogram: 36 0 2 0 0 0 0 1 0 1
Nghost:    5.225 ave 60 max 0 min
Histogram: 36 0 0 0 0 0 1 0 1 2
Neighs:    2.4 ave 54 max 0 min
Histogram: 36 1 1 1 0 0 0 0 0 1

Total # of neighbors = 96
Ave neighs/atom = 0.315789
Neighbor list builds = 1651
Dangerous builds = 2
write_dump all custom dump.atom_info_ac_* id type x y z radius vx vy vz density #
run 123456
Setting up run at Wed Jan  4 07:02:55 2023

Memory usage per processor = 958.583 Mbytes
    Step    Atoms         KinEng            CPU 
  864194      304     0.05687259              0 
  987650      304      0.0605108      1235.2722 
Loop time of 1235.27 on 40 procs for 123456 steps with 304 atoms, finish time Wed Jan  4 07:23:30 2023


Pair  time (%) = 0.241319 (0.0195357)
Neigh time (%) = 0.253287 (0.0205046)
Comm  time (%) = 0.719235 (0.0582248)
Outpt time (%) = 3.07929e-05 (2.4928e-06)
Other time (%) = 1234.06 (99.9017)

Nlocal:    7.6 ave 132 max 0 min
Histogram: 36 1 1 0 0 0 0 1 0 1
Nghost:    5.3 ave 61 max 0 min
Histogram: 36 0 0 0 0 0 1 0 1 2
Neighs:    2.375 ave 56 max 0 min
Histogram: 36 2 0 1 0 0 0 0 0 1

Total # of neighbors = 95
Ave neighs/atom = 0.3125
Neighbor list builds = 1439
Dangerous builds = 0
write_dump all custom dump.atom_info_ac_* id type x y z radius vx vy vz density #
run 123456
Setting up run at Wed Jan  4 07:23:30 2023

Memory usage per processor = 958.583 Mbytes
    Step    Atoms         KinEng            CPU 
  987650      304      0.0605108              0 
 1111106      303     0.35575461      1234.9948 
Loop time of 1234.99 on 40 procs for 123456 steps with 303 atoms, finish time Wed Jan  4 07:44:05 2023


Pair  time (%) = 0.241464 (0.0195518)
Neigh time (%) = 0.25643 (0.0207637)
Comm  time (%) = 0.718609 (0.0581872)
Outpt time (%) = 0.000765067 (6.1949e-05)
Other time (%) = 1233.78 (99.9014)

Nlocal:    7.575 ave 129 max 0 min
Histogram: 36 0 2 0 0 0 0 1 0 1
Nghost:    5.35 ave 59 max 0 min
Histogram: 36 0 0 0 0 0 0 1 0 3
Neighs:    2.4 ave 57 max 0 min
Histogram: 36 2 0 1 0 0 0 0 0 1

Total # of neighbors = 96
Ave neighs/atom = 0.316832
Neighbor list builds = 1459
Dangerous builds = 0
write_dump all custom dump.atom_info_ac_* id type x y z radius vx vy vz density #
run 123456
Setting up run at Wed Jan  4 07:44:05 2023

Memory usage per processor = 958.583 Mbytes
    Step    Atoms         KinEng            CPU 
 1111106      303     0.35575461              0 
 1234562      303    0.077815827       1237.338 
Loop time of 1237.34 on 40 procs for 123456 steps with 303 atoms, finish time Wed Jan  4 08:04:43 2023


Pair  time (%) = 0.240111 (0.0194054)
Neigh time (%) = 0.293485 (0.023719)
Comm  time (%) = 1.15609 (0.0934339)
Outpt time (%) = 0.00272521 (0.000220248)
Other time (%) = 1235.65 (99.8632)

Nlocal:    7.575 ave 128 max 0 min
Histogram: 36 0 2 0 0 0 0 0 1 1
Nghost:    5.325 ave 56 max 0 min
Histogram: 36 0 0 0 0 0 0 1 0 3
Neighs:    2.45 ave 58 max 0 min
Histogram: 36 2 0 1 0 0 0 0 0 1

Total # of neighbors = 98
Ave neighs/atom = 0.323432
Neighbor list builds = 1693
Dangerous builds = 0
write_dump all custom dump.atom_info_ac_* id type x y z radius vx vy vz density #
run 123456
Setting up run at Wed Jan  4 08:04:43 2023

Memory usage per processor = 958.583 Mbytes
    Step    Atoms         KinEng            CPU 
 1234562      303    0.077815827              0 
 1358018      301    0.049846472      1235.4239 
Loop time of 1235.42 on 40 procs for 123456 steps with 301 atoms, finish time Wed Jan  4 08:25:18 2023


Pair  time (%) = 0.242214 (0.0196058)
Neigh time (%) = 0.275172 (0.0222735)
Comm  time (%) = 1.01071 (0.0818107)
Outpt time (%) = 0.000358922 (2.90526e-05)
Other time (%) = 1233.9 (99.8763)

Nlocal:    7.525 ave 123 max 0 min
Histogram: 36 0 2 0 0 0 0 0 1 1
Nghost:    5.225 ave 59 max 0 min
Histogram: 36 0 0 0 0 0 0 1 2 1
Neighs:    2.5 ave 60 max 0 min
Histogram: 36 2 0 1 0 0 0 0 0 1

Total # of neighbors = 100
Ave neighs/atom = 0.332226
Neighbor list builds = 1591
Dangerous builds = 2
write_dump all custom dump.atom_info_ac_* id type x y z radius vx vy vz density #
run 123456
Setting up run at Wed Jan  4 08:25:18 2023

Memory usage per processor = 958.583 Mbytes
    Step    Atoms         KinEng            CPU 
 1358018      301    0.049846472              0 
 1481474      300     0.11525008      1243.4911 
Loop time of 1243.49 on 40 procs for 123456 steps with 300 atoms, finish time Wed Jan  4 08:46:02 2023


Pair  time (%) = 0.243218 (0.0195593)
Neigh time (%) = 0.460289 (0.0370159)
Comm  time (%) = 1.78268 (0.143361)
Outpt time (%) = 0.000737548 (5.93127e-05)
Other time (%) = 1241 (99.8)

Nlocal:    7.5 ave 120 max 0 min
Histogram: 36 0 2 0 0 0 0 0 1 1
Nghost:    5.3 ave 61 max 0 min
Histogram: 36 0 0 0 0 0 0 1 1 2
Neighs:    2.6 ave 60 max 0 min
Histogram: 36 1 1 1 0 0 0 0 0 1

Total # of neighbors = 104
Ave neighs/atom = 0.346667
Neighbor list builds = 2631
Dangerous builds = 6
write_dump all custom dump.atom_info_ac_* id type x y z radius vx vy vz density #
run 123456
Setting up run at Wed Jan  4 08:46:02 2023

Memory usage per processor = 958.583 Mbytes
    Step    Atoms         KinEng            CPU 
 1481474      300     0.11525008              0 
 1604930      300      0.1177018      1246.7164 
Loop time of 1246.72 on 40 procs for 123456 steps with 300 atoms, finish time Wed Jan  4 09:06:48 2023


Pair  time (%) = 0.243851 (0.0195594)
Neigh time (%) = 0.453043 (0.0363388)
Comm  time (%) = 1.44884 (0.116212)
Outpt time (%) = 0.000434549 (3.48555e-05)
Other time (%) = 1244.57 (99.8279)

Nlocal:    7.5 ave 119 max 0 min
Histogram: 36 0 2 0 0 0 0 0 1 1
Nghost:    5.275 ave 61 max 0 min
Histogram: 36 0 0 0 0 0 1 0 1 2
Neighs:    2.65 ave 59 max 0 min
Histogram: 36 1 1 1 0 0 0 0 0 1

Total # of neighbors = 106
Ave neighs/atom = 0.353333
Neighbor list builds = 2575
Dangerous builds = 0
write_dump all custom dump.atom_info_ac_* id type x y z radius vx vy vz density #
run 123456
Setting up run at Wed Jan  4 09:06:49 2023

Memory usage per processor = 958.583 Mbytes
    Step    Atoms         KinEng            CPU 
 1604930      300      0.1177018              0 
 1728386      299    0.079226204      1237.1649 
Loop time of 1237.16 on 40 procs for 123456 steps with 299 atoms, finish time Wed Jan  4 09:27:26 2023


Pair  time (%) = 0.244367 (0.0197522)
Neigh time (%) = 0.539266 (0.0435889)
Comm  time (%) = 1.9266 (0.155727)
Outpt time (%) = 0.000351975 (2.84501e-05)
Other time (%) = 1234.45 (99.7809)

Nlocal:    7.475 ave 116 max 0 min
Histogram: 36 0 1 1 0 0 0 0 1 1
Nghost:    5.25 ave 62 max 0 min
Histogram: 36 0 0 0 0 0 1 1 0 2
Neighs:    2.725 ave 56 max 0 min
Histogram: 36 1 0 1 1 0 0 0 0 1

Total # of neighbors = 109
Ave neighs/atom = 0.364548
Neighbor list builds = 3100
Dangerous builds = 84
write_dump all custom dump.atom_info_ac_* id type x y z radius vx vy vz density #
run 123456
Setting up run at Wed Jan  4 09:27:26 2023

Memory usage per processor = 958.583 Mbytes
    Step    Atoms         KinEng            CPU 
 1728386      299    0.079226204              0 
 1851842      297    0.087832289      1257.8457 
Loop time of 1257.85 on 40 procs for 123456 steps with 297 atoms, finish time Wed Jan  4 09:48:24 2023


Pair  time (%) = 0.247761 (0.0196972)
Neigh time (%) = 0.71609 (0.0569298)
Comm  time (%) = 2.55986 (0.203512)
Outpt time (%) = 0.000739959 (5.88275e-05)
Other time (%) = 1254.32 (99.7198)

Nlocal:    7.425 ave 113 max 0 min
Histogram: 36 0 0 2 0 0 0 0 1 1
Nghost:    5.325 ave 65 max 0 min
Histogram: 36 0 0 0 0 0 2 0 1 1
Neighs:    2.6 ave 50 max 0 min
Histogram: 36 1 0 0 2 0 0 0 0 1

Total # of neighbors = 104
Ave neighs/atom = 0.350168
Neighbor list builds = 4116
Dangerous builds = 0
write_dump all custom dump.atom_info_ac_* id type x y z radius vx vy vz density #
run 123456
Setting up run at Wed Jan  4 09:48:24 2023

Memory usage per processor = 958.583 Mbytes
    Step    Atoms         KinEng            CPU 
 1851842      297    0.087832289              0 
 1975298      295     0.10618208      1265.6321 
Loop time of 1265.63 on 40 procs for 123456 steps with 295 atoms, finish time Wed Jan  4 10:09:29 2023


Pair  time (%) = 0.244386 (0.0193094)
Neigh time (%) = 0.575569 (0.0454768)
Comm  time (%) = 2.04511 (0.161588)
Outpt time (%) = 0.000440614 (3.48137e-05)
Other time (%) = 1262.77 (99.7736)

Nlocal:    7.375 ave 110 max 0 min
Histogram: 36 0 0 2 0 0 0 0 1 1
Nghost:    5.05 ave 63 max 0 min
Histogram: 36 0 0 0 0 0 2 0 1 1
Neighs:    2.55 ave 51 max 0 min
Histogram: 36 1 0 0 2 0 0 0 0 1

Total # of neighbors = 102
Ave neighs/atom = 0.345763
Neighbor list builds = 3249
Dangerous builds = 1
write_dump all custom dump.atom_info_ac_* id type x y z radius vx vy vz density #
run 123456
Setting up run at Wed Jan  4 10:09:29 2023

Memory usage per processor = 958.583 Mbytes
    Step    Atoms         KinEng            CPU 
 1975298      295     0.10618208              0 
 2098754      294     0.16331228      1314.5518 
Loop time of 1314.55 on 40 procs for 123456 steps with 294 atoms, finish time Wed Jan  4 10:31:24 2023


Pair  time (%) = 0.24806 (0.0188703)
Neigh time (%) = 1.01054 (0.0768737)
Comm  time (%) = 2.67332 (0.203364)
Outpt time (%) = 0.000358908 (2.73027e-05)
Other time (%) = 1310.62 (99.7009)

Nlocal:    7.35 ave 106 max 0 min
Histogram: 36 0 0 2 0 0 0 0 0 2
Nghost:    5.05 ave 68 max 0 min
Histogram: 36 0 0 0 0 1 1 1 0 1
Neighs:    2.675 ave 52 max 0 min
Histogram: 36 1 0 1 0 1 0 0 0 1

Total # of neighbors = 107
Ave neighs/atom = 0.363946
Neighbor list builds = 5688
Dangerous builds = 1
write_dump all custom dump.atom_info_ac_* id type x y z radius vx vy vz density #
run 123456
Setting up run at Wed Jan  4 10:31:24 2023

Memory usage per processor = 958.583 Mbytes
    Step    Atoms         KinEng            CPU 
 2098754      294     0.16331228              0 
 2222210      293     0.31211535       1258.158 
Loop time of 1258.16 on 40 procs for 123456 steps with 293 atoms, finish time Wed Jan  4 10:52:22 2023


Pair  time (%) = 0.246659 (0.0196048)
Neigh time (%) = 0.92442 (0.073474)
Comm  time (%) = 2.47968 (0.197088)
Outpt time (%) = 0.000402051 (3.19555e-05)
Other time (%) = 1254.51 (99.7098)

Nlocal:    7.325 ave 105 max 0 min
Histogram: 36 0 0 2 0 0 0 0 0 2
Nghost:    5.175 ave 68 max 0 min
Histogram: 36 0 0 0 0 0 2 1 0 1
Neighs:    2.6 ave 49 max 0 min
Histogram: 36 1 0 0 1 1 0 0 0 1

Total # of neighbors = 104
Ave neighs/atom = 0.354949
Neighbor list builds = 5202
Dangerous builds = 0
write_dump all custom dump.atom_info_ac_* id type x y z radius vx vy vz density #
run 123456
Setting up run at Wed Jan  4 10:52:22 2023

Memory usage per processor = 958.583 Mbytes
    Step    Atoms         KinEng            CPU 
 2222210      293     0.31211535              0 
 2345666      292      0.2749619      1340.4581 
Loop time of 1340.46 on 40 procs for 123456 steps with 292 atoms, finish time Wed Jan  4 11:14:43 2023


Pair  time (%) = 0.244225 (0.0182195)
Neigh time (%) = 0.695343 (0.0518735)
Comm  time (%) = 2.12692 (0.158671)
Outpt time (%) = 0.000739131 (5.51402e-05)
Other time (%) = 1337.39 (99.7712)

Nlocal:    7.3 ave 103 max 0 min
Histogram: 36 0 0 2 0 0 0 0 0 2
Nghost:    5.025 ave 68 max 0 min
Histogram: 36 0 0 0 0 1 1 1 0 1
Neighs:    2.325 ave 40 max 0 min
Histogram: 36 1 0 0 0 1 1 0 0 1

Total # of neighbors = 93
Ave neighs/atom = 0.318493
Neighbor list builds = 3941
Dangerous builds = 23
write_dump all custom dump.atom_info_ac_* id type x y z radius vx vy vz density #
run 123456
Setting up run at Wed Jan  4 11:14:43 2023

Memory usage per processor = 958.583 Mbytes
    Step    Atoms         KinEng            CPU 
 2345666      292      0.2749619              0 
 2469122      291     0.25872623      1383.2105 
Loop time of 1383.21 on 40 procs for 123456 steps with 291 atoms, finish time Wed Jan  4 11:37:46 2023


Pair  time (%) = 0.24277 (0.0175512)
Neigh time (%) = 0.744775 (0.0538439)
Comm  time (%) = 2.27007 (0.164116)
Outpt time (%) = 0.000332186 (2.40156e-05)
Other time (%) = 1379.95 (99.7645)

Nlocal:    7.275 ave 102 max 0 min
Histogram: 36 0 0 2 0 0 0 0 0 2
Nghost:    5.025 ave 66 max 0 min
Histogram: 36 0 0 0 0 0 2 1 0 1
Neighs:    2.325 ave 42 max 0 min
Histogram: 36 1 0 0 0 2 0 0 0 1

Total # of neighbors = 93
Ave neighs/atom = 0.319588
Neighbor list builds = 4237
Dangerous builds = 0
write_dump all custom dump.atom_info_ac_* id type x y z radius vx vy vz density #
run 123456
Setting up run at Wed Jan  4 11:37:46 2023

Memory usage per processor = 958.583 Mbytes
    Step    Atoms         KinEng            CPU 
 2469122      291     0.25872623              0 
 2592578      290     0.36213749       1329.168 
Loop time of 1329.17 on 40 procs for 123456 steps with 290 atoms, finish time Wed Jan  4 11:59:55 2023


Pair  time (%) = 0.242643 (0.0182552)
Neigh time (%) = 0.723188 (0.0544091)
Comm  time (%) = 1.77268 (0.133367)
Outpt time (%) = 0.000657226 (4.94464e-05)
Other time (%) = 1326.43 (99.7939)

Nlocal:    7.25 ave 100 max 0 min
Histogram: 36 0 0 1 1 0 0 0 0 2
Nghost:    5.05 ave 67 max 0 min
Histogram: 36 0 0 0 0 1 1 1 0 1
Neighs:    2.175 ave 35 max 0 min
Histogram: 36 0 1 0 0 1 1 0 0 1

Total # of neighbors = 87
Ave neighs/atom = 0.3
Neighbor list builds = 4054
Dangerous builds = 0
write_dump all custom dump.atom_info_ac_* id type x y z radius vx vy vz density #
run 123456
Setting up run at Wed Jan  4 11:59:55 2023

Memory usage per processor = 958.583 Mbytes
    Step    Atoms         KinEng            CPU 
 2592578      290     0.36213749              0 
 2716034      289     0.53456659      1285.9647 
Loop time of 1285.97 on 40 procs for 123456 steps with 289 atoms, finish time Wed Jan  4 12:21:21 2023


Pair  time (%) = 0.249213 (0.0193795)
Neigh time (%) = 1.05128 (0.0817501)
Comm  time (%) = 2.48128 (0.192951)
Outpt time (%) = 0.000439441 (3.4172e-05)
Other time (%) = 1282.18 (99.7059)

Nlocal:    7.225 ave 100 max 0 min
Histogram: 36 0 0 1 1 0 0 0 0 2
Nghost:    4.825 ave 62 max 0 min
Histogram: 36 0 0 0 0 0 2 1 0 1
Neighs:    2.125 ave 36 max 0 min
Histogram: 36 0 1 0 1 0 1 0 0 1

Total # of neighbors = 85
Ave neighs/atom = 0.294118
Neighbor list builds = 5945
Dangerous builds = 1
write_dump all custom dump.atom_info_ac_* id type x y z radius vx vy vz density #
run 123456
Setting up run at Wed Jan  4 12:21:21 2023

Memory usage per processor = 958.583 Mbytes
    Step    Atoms         KinEng            CPU 
 2716034      289     0.53456659              0 
 2839490      289     0.44599581      1287.0857 
Loop time of 1287.09 on 40 procs for 123456 steps with 289 atoms, finish time Wed Jan  4 12:42:48 2023


Pair  time (%) = 0.242106 (0.0188104)
Neigh time (%) = 0.59727 (0.0464048)
Comm  time (%) = 1.58098 (0.122834)
Outpt time (%) = 0.000331605 (2.5764e-05)
Other time (%) = 1284.67 (99.8119)

Nlocal:    7.225 ave 99 max 0 min
Histogram: 36 0 0 2 0 0 0 0 0 2
Nghost:    4.85 ave 61 max 0 min
Histogram: 36 0 0 0 0 0 1 1 1 1
Neighs:    2 ave 34 max 0 min
Histogram: 36 0 1 0 1 0 1 0 0 1

Total # of neighbors = 80
Ave neighs/atom = 0.276817
Neighbor list builds = 3330
Dangerous builds = 0
write_dump all custom dump.atom_info_ac_* id type x y z radius vx vy vz density #
run 123456
Setting up run at Wed Jan  4 12:42:48 2023

Memory usage per processor = 958.583 Mbytes
    Step    Atoms         KinEng            CPU 
 2839490      289     0.44599581              0 
 2962946      289     0.41404091      1294.3178 
Loop time of 1294.32 on 40 procs for 123456 steps with 289 atoms, finish time Wed Jan  4 13:04:23 2023


Pair  time (%) = 0.244544 (0.0188936)
Neigh time (%) = 0.57302 (0.044272)
Comm  time (%) = 1.46412 (0.113119)
Outpt time (%) = 0.000650143 (5.02305e-05)
Other time (%) = 1292.04 (99.8237)

Nlocal:    7.225 ave 97 max 0 min
Histogram: 36 0 0 2 0 0 0 0 0 2
Nghost:    4.775 ave 62 max 0 min
Histogram: 36 0 0 0 0 1 1 1 0 1
Neighs:    2.125 ave 32 max 0 min
Histogram: 36 0 0 1 1 0 0 0 1 1

Total # of neighbors = 85
Ave neighs/atom = 0.294118
Neighbor list builds = 3208
Dangerous builds = 0
write_dump all custom dump.atom_info_ac_* id type x y z radius vx vy vz density #
run 123456
Setting up run at Wed Jan  4 13:04:23 2023

Memory usage per processor = 958.583 Mbytes
    Step    Atoms         KinEng            CPU 
 2962946      289     0.41404091              0 
 3086402      288      0.4131043      1261.7655 
Loop time of 1261.78 on 40 procs for 123456 steps with 288 atoms, finish time Wed Jan  4 13:25:25 2023


Pair  time (%) = 0.244147 (0.0193494)
Neigh time (%) = 0.635588 (0.0503724)
Comm  time (%) = 1.71422 (0.135858)
Outpt time (%) = 0.000321291 (2.54634e-05)
Other time (%) = 1259.18 (99.7944)

Nlocal:    7.2 ave 97 max 0 min
Histogram: 36 0 0 2 0 0 0 0 0 2
Nghost:    4.775 ave 61 max 0 min
Histogram: 36 0 0 0 0 0 1 2 0 1
Neighs:    2.075 ave 31 max 0 min
Histogram: 36 0 0 2 0 0 0 0 0 2

Total # of neighbors = 83
Ave neighs/atom = 0.288194
Neighbor list builds = 3551
Dangerous builds = 1
write_dump all custom dump.atom_info_ac_* id type x y z radius vx vy vz density #
run 123456
Setting up run at Wed Jan  4 13:25:25 2023

Memory usage per processor = 958.583 Mbytes
    Step    Atoms         KinEng            CPU 
 3086402      288      0.4131043              0 
 3209858      285     0.43445575       1265.008 
Loop time of 1265.01 on 40 procs for 123456 steps with 285 atoms, finish time Wed Jan  4 13:46:30 2023


Pair  time (%) = 0.248019 (0.0196061)
Neigh time (%) = 0.981589 (0.0775954)
Comm  time (%) = 2.48459 (0.196409)
Outpt time (%) = 0.00040126 (3.172e-05)
Other time (%) = 1261.29 (99.7064)

Nlocal:    7.125 ave 97 max 0 min
Histogram: 36 0 0 2 0 0 0 0 0 2
Nghost:    4.65 ave 60 max 0 min
Histogram: 36 0 0 0 0 0 2 1 0 1
Neighs:    2 ave 31 max 0 min
Histogram: 36 0 1 1 0 0 0 0 0 2

Total # of neighbors = 80
Ave neighs/atom = 0.280702
Neighbor list builds = 5683
Dangerous builds = 302
write_dump all custom dump.atom_info_ac_* id type x y z radius vx vy vz density #
run 123456
Setting up run at Wed Jan  4 13:46:30 2023

Memory usage per processor = 958.583 Mbytes
    Step    Atoms         KinEng            CPU 
 3209858      285     0.43445575              0 
 3333314      281     0.24376474      1247.6733 
Loop time of 1247.67 on 40 procs for 123456 steps with 281 atoms, finish time Wed Jan  4 14:07:18 2023


Pair  time (%) = 0.239219 (0.0191732)
Neigh time (%) = 0.522747 (0.0418977)
Comm  time (%) = 1.63966 (0.131418)
Outpt time (%) = 0.000400319 (3.20853e-05)
Other time (%) = 1245.27 (99.8075)

Nlocal:    7.025 ave 94 max 0 min
Histogram: 36 0 0 1 1 0 0 0 0 2
Nghost:    4.575 ave 60 max 0 min
Histogram: 36 0 0 0 0 0 2 1 0 1
Neighs:    1.975 ave 30 max 0 min
Histogram: 36 0 1 0 1 0 0 0 0 2

Total # of neighbors = 79
Ave neighs/atom = 0.281139
Neighbor list builds = 3006
Dangerous builds = 1
write_dump all custom dump.atom_info_ac_* id type x y z radius vx vy vz density #
run 123456
Setting up run at Wed Jan  4 14:07:18 2023

Memory usage per processor = 958.583 Mbytes
    Step    Atoms         KinEng            CPU 
 3333314      281     0.24376474              0 
 3456770      281     0.25351724      1294.4392 
Loop time of 1294.44 on 40 procs for 123456 steps with 281 atoms, finish time Wed Jan  4 14:28:52 2023


Pair  time (%) = 0.240263 (0.0185612)
Neigh time (%) = 0.553846 (0.0427865)
Comm  time (%) = 1.71707 (0.13265)
Outpt time (%) = 0.000728158 (5.62527e-05)
Other time (%) = 1291.93 (99.8059)

Nlocal:    7.025 ave 96 max 0 min
Histogram: 35 1 0 2 0 0 0 0 0 2
Nghost:    4.575 ave 59 max 0 min
Histogram: 36 0 0 0 0 0 3 0 0 1
Neighs:    1.975 ave 32 max 0 min
Histogram: 36 0 1 1 0 0 0 0 1 1

Total # of neighbors = 79
Ave neighs/atom = 0.281139
Neighbor list builds = 3089
Dangerous builds = 0
write_dump all custom dump.atom_info_ac_* id type x y z radius vx vy vz density #
run 123456
Setting up run at Wed Jan  4 14:28:52 2023

Memory usage per processor = 958.583 Mbytes
    Step    Atoms         KinEng            CPU 
 3456770      281     0.25351724              0 
 3580226      281     0.18721849       1255.629 
Loop time of 1255.63 on 40 procs for 123456 steps with 281 atoms, finish time Wed Jan  4 14:49:48 2023


Pair  time (%) = 0.235883 (0.018786)
Neigh time (%) = 0.41315 (0.0329038)
Comm  time (%) = 1.21446 (0.0967212)
Outpt time (%) = 0.000401118 (3.19456e-05)
Other time (%) = 1253.77 (99.8516)

Nlocal:    7.025 ave 97 max 0 min
Histogram: 36 0 0 2 0 0 0 0 0 2
Nghost:    4.475 ave 60 max 0 min
Histogram: 36 0 0 0 0 1 1 1 0 1
Neighs:    1.875 ave 34 max 0 min
Histogram: 36 0 2 0 0 0 0 1 0 1

Total # of neighbors = 75
Ave neighs/atom = 0.266904
Neighbor list builds = 2303
Dangerous builds = 0
write_dump all custom dump.atom_info_ac_* id type x y z radius vx vy vz density #
run 123456
Setting up run at Wed Jan  4 14:49:48 2023

Memory usage per processor = 958.583 Mbytes
    Step    Atoms         KinEng            CPU 
 3580226      281     0.18721849              0 
 3703682      280     0.38228093      1322.2027 
Loop time of 1322.2 on 40 procs for 123456 steps with 280 atoms, finish time Wed Jan  4 15:11:50 2023


Pair  time (%) = 0.242481 (0.0183391)
Neigh time (%) = 0.789077 (0.059679)
Comm  time (%) = 2.04855 (0.154935)
Outpt time (%) = 0.000439527 (3.3242e-05)
Other time (%) = 1319.12 (99.767)

Nlocal:    7 ave 99 max 0 min
Histogram: 36 0 0 1 1 0 0 0 1 1
Nghost:    4.525 ave 63 max 0 min
Histogram: 36 0 0 0 1 1 0 1 0 1
Neighs:    1.875 ave 31 max 0 min
Histogram: 36 0 1 1 0 0 0 0 1 1

Total # of neighbors = 75
Ave neighs/atom = 0.267857
Neighbor list builds = 4445
Dangerous builds = 2
write_dump all custom dump.atom_info_ac_* id type x y z radius vx vy vz density #
run 123456
Setting up run at Wed Jan  4 15:11:50 2023

Memory usage per processor = 958.583 Mbytes
    Step    Atoms         KinEng            CPU 
 3703682      280     0.38228093              0 
 3827138      280      0.4790677      1278.8835 
Loop time of 1278.88 on 40 procs for 123456 steps with 280 atoms, finish time Wed Jan  4 15:33:09 2023


Pair  time (%) = 0.242708 (0.0189781)
Neigh time (%) = 0.838008 (0.0655265)
Comm  time (%) = 2.36984 (0.185306)
Outpt time (%) = 0.000674152 (5.27141e-05)
Other time (%) = 1275.43 (99.7301)

Nlocal:    7 ave 100 max 0 min
Histogram: 36 0 0 2 0 0 0 0 1 1
Nghost:    4.45 ave 61 max 0 min
Histogram: 36 0 0 0 0 2 0 1 0 1
Neighs:    1.65 ave 25 max 0 min
Histogram: 36 0 0 1 1 0 0 0 1 1

Total # of neighbors = 66
Ave neighs/atom = 0.235714
Neighbor list builds = 4695
Dangerous builds = 0
write_dump all custom dump.atom_info_ac_* id type x y z radius vx vy vz density #
run 123456
Setting up run at Wed Jan  4 15:33:09 2023

Memory usage per processor = 958.583 Mbytes
    Step    Atoms         KinEng            CPU 
 3827138      280      0.4790677              0 
 3950594      277     0.42148922      1315.0228 
Loop time of 1315.02 on 40 procs for 123456 steps with 277 atoms, finish time Wed Jan  4 15:55:04 2023


Pair  time (%) = 0.242118 (0.0184117)
Neigh time (%) = 0.851583 (0.064758)
Comm  time (%) = 2.62846 (0.199879)
Outpt time (%) = 0.000314953 (2.39504e-05)
Other time (%) = 1311.3 (99.7169)

Nlocal:    6.925 ave 99 max 0 min
Histogram: 36 0 0 2 0 0 0 1 0 1
Nghost:    4.65 ave 59 max 0 min
Histogram: 36 0 0 0 0 1 1 1 0 1
Neighs:    1.65 ave 25 max 0 min
Histogram: 36 0 0 0 1 1 0 1 0 1

Total # of neighbors = 66
Ave neighs/atom = 0.238267
Neighbor list builds = 4895
Dangerous builds = 243
write_dump all custom dump.atom_info_ac_* id type x y z radius vx vy vz density #
run 123456
Setting up run at Wed Jan  4 15:55:04 2023

Memory usage per processor = 958.583 Mbytes
    Step    Atoms         KinEng            CPU 
 3950594      277     0.42148922              0 
 4074050      277     0.32486874      1263.2977 
Loop time of 1263.3 on 40 procs for 123456 steps with 277 atoms, finish time Wed Jan  4 16:16:07 2023


Pair  time (%) = 0.241579 (0.0191229)
Neigh time (%) = 0.794808 (0.0629153)
Comm  time (%) = 2.26727 (0.179472)
Outpt time (%) = 4.54944e-05 (3.60125e-06)
Other time (%) = 1259.99 (99.7385)

Nlocal:    6.925 ave 99 max 0 min
Histogram: 36 0 0 2 0 0 0 1 0 1
Nghost:    4.55 ave 53 max 0 min
Histogram: 36 0 0 0 0 0 1 1 0 2
Neighs:    1.55 ave 26 max 0 min
Histogram: 36 0 1 0 1 0 1 0 0 1

Total # of neighbors = 62
Ave neighs/atom = 0.223827
Neighbor list builds = 4451
Dangerous builds = 0
write_dump all custom dump.atom_info_ac_* id type x y z radius vx vy vz density #
run 123456
Setting up run at Wed Jan  4 16:16:07 2023

Memory usage per processor = 958.583 Mbytes
    Step    Atoms         KinEng            CPU 
 4074050      277     0.32486874              0 
 4197506      275     0.34150561      1267.3302 
Loop time of 1267.33 on 40 procs for 123456 steps with 275 atoms, finish time Wed Jan  4 16:37:15 2023


Pair  time (%) = 0.241888 (0.0190865)
Neigh time (%) = 0.838438 (0.0661578)
Comm  time (%) = 2.68201 (0.211627)
Outpt time (%) = 0.000644589 (5.08619e-05)
Other time (%) = 1263.57 (99.7031)

Nlocal:    6.875 ave 94 max 0 min
Histogram: 36 0 0 2 0 0 0 0 1 1
Nghost:    4.575 ave 54 max 0 min
Histogram: 36 0 0 0 0 1 0 1 0 2
Neighs:    1.575 ave 26 max 0 min
Histogram: 36 0 1 0 1 0 0 1 0 1

Total # of neighbors = 63
Ave neighs/atom = 0.229091
Neighbor list builds = 4804
Dangerous builds = 200
write_dump all custom dump.atom_info_ac_* id type x y z radius vx vy vz density #
run 123456
Setting up run at Wed Jan  4 16:37:15 2023

Memory usage per processor = 958.583 Mbytes
    Step    Atoms         KinEng            CPU 
 4197506      275     0.34150561              0 
 4320962      272     0.32787444      1260.0402 
Loop time of 1260.04 on 40 procs for 123456 steps with 272 atoms, finish time Wed Jan  4 16:58:15 2023


Pair  time (%) = 0.242385 (0.0192363)
Neigh time (%) = 0.806416 (0.0639992)
Comm  time (%) = 2.26449 (0.179716)
Outpt time (%) = 0.000363317 (2.88338e-05)
Other time (%) = 1256.73 (99.737)

Nlocal:    6.8 ave 91 max 0 min
Histogram: 35 1 0 2 0 0 0 0 1 1
Nghost:    4.55 ave 53 max 0 min
Histogram: 36 0 0 0 0 1 0 1 0 2
Neighs:    1.65 ave 29 max 0 min
Histogram: 36 0 0 2 0 1 0 0 0 1

Total # of neighbors = 66
Ave neighs/atom = 0.242647
Neighbor list builds = 4516
Dangerous builds = 10
write_dump all custom dump.atom_info_ac_* id type x y z radius vx vy vz density #
run 123456
Setting up run at Wed Jan  4 16:58:15 2023

Memory usage per processor = 958.583 Mbytes
    Step    Atoms         KinEng            CPU 
 4320962      272     0.32787444              0 
 4444418      271      1.1519009      1278.3504 
Loop time of 1278.35 on 40 procs for 123456 steps with 271 atoms, finish time Wed Jan  4 17:19:33 2023


Pair  time (%) = 0.243017 (0.0190102)
Neigh time (%) = 0.86347 (0.0675457)
Comm  time (%) = 2.15355 (0.168463)
Outpt time (%) = 0.000392222 (3.06819e-05)
Other time (%) = 1275.09 (99.745)

Nlocal:    6.775 ave 88 max 0 min
Histogram: 36 0 0 1 1 0 0 0 0 2
Nghost:    4.45 ave 51 max 0 min
Histogram: 36 0 0 0 0 0 1 0 1 2
Neighs:    1.525 ave 28 max 0 min
Histogram: 36 1 1 0 0 0 1 0 0 1

Total # of neighbors = 61
Ave neighs/atom = 0.225092
Neighbor list builds = 4840
Dangerous builds = 0
write_dump all custom dump.atom_info_ac_* id type x y z radius vx vy vz density #
run 123456
Setting up run at Wed Jan  4 17:19:33 2023

Memory usage per processor = 958.583 Mbytes
    Step    Atoms         KinEng            CPU 
 4444418      271      1.1519009              0 
 4567874      269     0.34712815      1259.2796 
Loop time of 1259.28 on 40 procs for 123456 steps with 269 atoms, finish time Wed Jan  4 17:40:33 2023


Pair  time (%) = 0.245439 (0.0194904)
Neigh time (%) = 0.977817 (0.0776489)
Comm  time (%) = 2.48534 (0.197362)
Outpt time (%) = 0.000725225 (5.75904e-05)
Other time (%) = 1255.57 (99.7054)

Nlocal:    6.725 ave 86 max 0 min
Histogram: 35 1 0 2 0 0 0 0 0 2
Nghost:    4.375 ave 50 max 0 min
Histogram: 36 0 0 0 0 0 1 0 1 2
Neighs:    1.6 ave 29 max 0 min
Histogram: 36 1 1 0 0 0 0 1 0 1

Total # of neighbors = 64
Ave neighs/atom = 0.237918
Neighbor list builds = 5476
Dangerous builds = 1
write_dump all custom dump.atom_info_ac_* id type x y z radius vx vy vz density #
run 123456
Setting up run at Wed Jan  4 17:40:33 2023

Memory usage per processor = 958.583 Mbytes
    Step    Atoms         KinEng            CPU 
 4567874      269     0.34712815              0 
 4691330      264     0.39780593      1262.9988 
Loop time of 1263 on 40 procs for 123456 steps with 264 atoms, finish time Wed Jan  4 18:01:36 2023


Pair  time (%) = 0.245241 (0.0194174)
Neigh time (%) = 1.12689 (0.0892231)
Comm  time (%) = 3.24131 (0.256636)
Outpt time (%) = 0.000336748 (2.66626e-05)
Other time (%) = 1258.39 (99.6347)

Nlocal:    6.6 ave 87 max 0 min
Histogram: 35 1 0 2 0 0 0 0 0 2
Nghost:    4.25 ave 47 max 0 min
Histogram: 36 0 0 0 0 0 1 0 1 2
Neighs:    1.5 ave 24 max 0 min
Histogram: 36 0 1 1 0 0 0 0 1 1

Total # of neighbors = 60
Ave neighs/atom = 0.227273
Neighbor list builds = 6343
Dangerous builds = 72
write_dump all custom dump.atom_info_ac_* id type x y z radius vx vy vz density #
run 123456
Setting up run at Wed Jan  4 18:01:36 2023

Memory usage per processor = 958.583 Mbytes
    Step    Atoms         KinEng            CPU 
 4691330      264     0.39780593              0 
 4814786      263     0.42068637      1262.0528 
Loop time of 1262.05 on 40 procs for 123456 steps with 263 atoms, finish time Wed Jan  4 18:22:38 2023


Pair  time (%) = 0.239688 (0.0189919)
Neigh time (%) = 0.791196 (0.0626912)
Comm  time (%) = 2.90254 (0.229986)
Outpt time (%) = 0.00918761 (0.000727989)
Other time (%) = 1258.11 (99.6876)

Nlocal:    6.575 ave 87 max 0 min
Histogram: 35 1 1 1 0 0 0 0 0 2
Nghost:    4.3 ave 46 max 0 min
Histogram: 36 0 0 0 0 0 1 0 1 2
Neighs:    1.525 ave 23 max 0 min
Histogram: 36 1 0 0 1 0 0 0 0 2

Total # of neighbors = 61
Ave neighs/atom = 0.231939
Neighbor list builds = 4506
Dangerous builds = 177
write_dump all custom dump.atom_info_ac_* id type x y z radius vx vy vz density #
run 123456
Setting up run at Wed Jan  4 18:22:38 2023

Memory usage per processor = 958.583 Mbytes
    Step    Atoms         KinEng            CPU 
 4814786      263     0.42068637              0 
 4938242      260     0.55806226      1278.3172 
Loop time of 1278.32 on 40 procs for 123456 steps with 260 atoms, finish time Wed Jan  4 18:43:56 2023


Pair  time (%) = 0.240494 (0.0188133)
Neigh time (%) = 0.972447 (0.0760724)
Comm  time (%) = 3.51985 (0.27535)
Outpt time (%) = 0.000715431 (5.59667e-05)
Other time (%) = 1273.58 (99.6297)

Nlocal:    6.5 ave 86 max 0 min
Histogram: 36 0 0 1 1 0 0 0 0 2
Nghost:    4.25 ave 48 max 0 min
Histogram: 36 0 0 0 0 1 0 0 0 3
Neighs:    1.575 ave 25 max 0 min
Histogram: 36 0 1 1 0 0 0 0 1 1

Total # of neighbors = 63
Ave neighs/atom = 0.242308
Neighbor list builds = 5614
Dangerous builds = 319
write_dump all custom dump.atom_info_ac_* id type x y z radius vx vy vz density #
run 123456
Setting up run at Wed Jan  4 18:43:56 2023

Memory usage per processor = 958.583 Mbytes
    Step    Atoms         KinEng            CPU 
 4938242      260     0.55806226              0 
 5061698      257     0.54691942      1287.3585 
Loop time of 1287.36 on 40 procs for 123456 steps with 257 atoms, finish time Wed Jan  4 19:05:24 2023


Pair  time (%) = 0.240762 (0.018702)
Neigh time (%) = 0.854477 (0.0663744)
Comm  time (%) = 2.87521 (0.223342)
Outpt time (%) = 0.000360136 (2.79748e-05)
Other time (%) = 1283.39 (99.6916)

Nlocal:    6.425 ave 85 max 0 min
Histogram: 34 2 0 2 0 0 0 0 0 2
Nghost:    4.175 ave 46 max 0 min
Histogram: 36 0 0 0 0 1 0 0 0 3
Neighs:    1.6 ave 28 max 0 min
Histogram: 36 0 2 0 0 0 0 1 0 1

Total # of neighbors = 64
Ave neighs/atom = 0.249027
Neighbor list builds = 4947
Dangerous builds = 436
write_dump all custom dump.atom_info_ac_* id type x y z radius vx vy vz density #
run 123456
Setting up run at Wed Jan  4 19:05:24 2023

Memory usage per processor = 958.583 Mbytes
    Step    Atoms         KinEng            CPU 
 5061698      257     0.54691942              0 
 5185154      255     0.73913235      1333.5022 
Loop time of 1333.5 on 40 procs for 123456 steps with 255 atoms, finish time Wed Jan  4 19:27:37 2023


Pair  time (%) = 0.242267 (0.0181677)
Neigh time (%) = 0.99614 (0.0747011)
Comm  time (%) = 3.04301 (0.228197)
Outpt time (%) = 0.000348424 (2.61285e-05)
Other time (%) = 1329.22 (99.6789)

Nlocal:    6.375 ave 86 max 0 min
Histogram: 35 1 0 2 0 0 0 0 1 1
Nghost:    4.1 ave 45 max 0 min
Histogram: 36 0 0 0 0 0 1 0 0 3
Neighs:    1.4 ave 21 max 0 min
Histogram: 36 0 0 2 0 0 0 0 0 2

Total # of neighbors = 56
Ave neighs/atom = 0.219608
Neighbor list builds = 5624
Dangerous builds = 1
write_dump all custom dump.atom_info_ac_* id type x y z radius vx vy vz density #
run 123456
Setting up run at Wed Jan  4 19:27:37 2023

Memory usage per processor = 958.583 Mbytes
    Step    Atoms         KinEng            CPU 
 5185154      255     0.73913235              0 
 5308610      253     0.71217425      1267.0434 
Loop time of 1267.04 on 40 procs for 123456 steps with 253 atoms, finish time Wed Jan  4 19:48:44 2023


Pair  time (%) = 0.243769 (0.0192392)
Neigh time (%) = 1.06357 (0.083941)
Comm  time (%) = 3.34836 (0.264265)
Outpt time (%) = 0.000662182 (5.2262e-05)
Other time (%) = 1262.39 (99.6325)

Nlocal:    6.325 ave 89 max 0 min
Histogram: 34 2 0 2 0 0 0 1 0 1
Nghost:    4.175 ave 46 max 0 min
Histogram: 36 0 0 0 0 1 0 0 1 2
Neighs:    1.15 ave 20 max 0 min
Histogram: 36 0 1 1 0 0 0 1 0 1

Total # of neighbors = 46
Ave neighs/atom = 0.181818
Neighbor list builds = 6048
Dangerous builds = 213
write_dump all custom dump.atom_info_ac_* id type x y z radius vx vy vz density #
run 123456
Setting up run at Wed Jan  4 19:48:44 2023

Memory usage per processor = 958.583 Mbytes
    Step    Atoms         KinEng            CPU 
 5308610      253     0.71217425              0 
 5432066      251     0.70596775       1309.433 
Loop time of 1309.45 on 40 procs for 123456 steps with 251 atoms, finish time Wed Jan  4 20:10:34 2023


Pair  time (%) = 0.242197 (0.0184962)
Neigh time (%) = 0.894574 (0.068317)
Comm  time (%) = 2.52518 (0.192844)
Outpt time (%) = 0.00981095 (0.000749244)
Other time (%) = 1305.77 (99.7196)

Nlocal:    6.275 ave 87 max 0 min
Histogram: 34 2 1 1 0 0 0 0 1 1
Nghost:    3.825 ave 45 max 0 min
Histogram: 36 0 0 0 0 1 0 0 1 2
Neighs:    1.225 ave 19 max 0 min
Histogram: 36 0 1 0 1 0 0 0 1 1

Total # of neighbors = 49
Ave neighs/atom = 0.195219
Neighbor list builds = 5045
Dangerous builds = 1
write_dump all custom dump.atom_info_ac_* id type x y z radius vx vy vz density #
run 123456
Setting up run at Wed Jan  4 20:10:34 2023

Memory usage per processor = 958.583 Mbytes
    Step    Atoms         KinEng            CPU 
 5432066      251     0.70596775              0 
 5555522      249     0.60148828      1248.2814 
Loop time of 1248.28 on 40 procs for 123456 steps with 249 atoms, finish time Wed Jan  4 20:31:22 2023


Pair  time (%) = 0.238988 (0.0191454)
Neigh time (%) = 0.864 (0.0692152)
Comm  time (%) = 3.4814 (0.278895)
Outpt time (%) = 0.000383647 (3.0734e-05)
Other time (%) = 1243.7 (99.6327)

Nlocal:    6.225 ave 86 max 0 min
Histogram: 35 1 1 1 0 0 0 1 0 1
Nghost:    3.675 ave 44 max 0 min
Histogram: 36 0 0 0 0 1 0 1 0 2
Neighs:    1.375 ave 28 max 0 min
Histogram: 36 1 1 0 0 1 0 0 0 1

Total # of neighbors = 55
Ave neighs/atom = 0.220884
Neighbor list builds = 4829
Dangerous builds = 1
write_dump all custom dump.atom_info_ac_* id type x y z radius vx vy vz density #
run 123456
Setting up run at Wed Jan  4 20:31:22 2023

Memory usage per processor = 958.583 Mbytes
    Step    Atoms         KinEng            CPU 
 5555522      249     0.60148828              0 
 5678978      245     0.59648088      1286.3928 
Loop time of 1286.39 on 40 procs for 123456 steps with 245 atoms, finish time Wed Jan  4 20:52:49 2023


Pair  time (%) = 0.249329 (0.019382)
Neigh time (%) = 1.81466 (0.141066)
Comm  time (%) = 6.43354 (0.500123)
Outpt time (%) = 0.000641407 (4.98609e-05)
Other time (%) = 1277.89 (99.3394)

Nlocal:    6.125 ave 86 max 0 min
Histogram: 35 1 0 2 0 0 0 1 0 1
Nghost:    3.825 ave 42 max 0 min
Histogram: 36 0 0 0 0 0 1 0 0 3
Neighs:    1.2 ave 26 max 0 min
Histogram: 36 2 0 0 0 1 0 0 0 1

Total # of neighbors = 48
Ave neighs/atom = 0.195918
Neighbor list builds = 10455
Dangerous builds = 285
write_dump all custom dump.atom_info_ac_* id type x y z radius vx vy vz density #
run 123456
Setting up run at Wed Jan  4 20:52:49 2023

Memory usage per processor = 958.583 Mbytes
    Step    Atoms         KinEng            CPU 
 5678978      245     0.59648088              0 
 5802434      243     0.56174788       1269.883 
Loop time of 1269.88 on 40 procs for 123456 steps with 243 atoms, finish time Wed Jan  4 21:13:59 2023


Pair  time (%) = 0.24226 (0.0190774)
Neigh time (%) = 1.14906 (0.0904855)
Comm  time (%) = 3.62624 (0.285557)
Outpt time (%) = 0.000384249 (3.02586e-05)
Other time (%) = 1264.87 (99.6048)

Nlocal:    6.075 ave 84 max 0 min
Histogram: 34 2 1 1 0 0 0 1 0 1
Nghost:    3.75 ave 39 max 0 min
Histogram: 36 0 0 0 0 0 1 0 0 3
Neighs:    1.225 ave 27 max 0 min
Histogram: 36 2 0 0 1 0 0 0 0 1

Total # of neighbors = 49
Ave neighs/atom = 0.201646
Neighbor list builds = 6381
Dangerous builds = 0
write_dump all custom dump.atom_info_ac_* id type x y z radius vx vy vz density #
run 123456
Setting up run at Wed Jan  4 21:13:59 2023

Memory usage per processor = 958.583 Mbytes
    Step    Atoms         KinEng            CPU 
 5802434      243     0.56174788              0 
 5925890      242      0.6239729      1314.1513 
Loop time of 1314.15 on 40 procs for 123456 steps with 242 atoms, finish time Wed Jan  4 21:35:53 2023


Pair  time (%) = 0.240397 (0.018293)
Neigh time (%) = 0.93898 (0.0714515)
Comm  time (%) = 4.00937 (0.305092)
Outpt time (%) = 0.000337878 (2.57108e-05)
Other time (%) = 1308.96 (99.6051)

Nlocal:    6.05 ave 81 max 0 min
Histogram: 34 2 0 2 0 0 0 1 0 1
Nghost:    3.85 ave 43 max 0 min
Histogram: 36 0 0 0 0 0 1 1 0 2
Neighs:    1.075 ave 23 max 0 min
Histogram: 37 0 1 0 0 1 0 0 0 1

Total # of neighbors = 43
Ave neighs/atom = 0.177686
Neighbor list builds = 5304
Dangerous builds = 128
write_dump all custom dump.atom_info_ac_* id type x y z radius vx vy vz density #
run 123456
Setting up run at Wed Jan  4 21:35:53 2023

Memory usage per processor = 958.583 Mbytes
    Step    Atoms         KinEng            CPU 
 5925890      242      0.6239729              0 
 6049346      237     0.61335318      1336.3632 
Loop time of 1336.36 on 40 procs for 123456 steps with 237 atoms, finish time Wed Jan  4 21:58:09 2023


Pair  time (%) = 0.240553 (0.0180006)
Neigh time (%) = 1.05242 (0.0787522)
Comm  time (%) = 3.51155 (0.262769)
Outpt time (%) = 0.000658033 (4.92406e-05)
Other time (%) = 1331.56 (99.6404)

Nlocal:    5.925 ave 74 max 0 min
Histogram: 34 2 0 1 1 0 0 0 1 1
Nghost:    3.75 ave 47 max 0 min
Histogram: 36 0 0 0 0 1 0 2 0 1
Neighs:    0.95 ave 16 max 0 min
Histogram: 36 0 0 2 0 0 1 0 0 1

Total # of neighbors = 38
Ave neighs/atom = 0.160338
Neighbor list builds = 6144
Dangerous builds = 179
write_dump all custom dump.atom_info_ac_* id type x y z radius vx vy vz density #
run 123456
Setting up run at Wed Jan  4 21:58:09 2023

Memory usage per processor = 958.583 Mbytes
    Step    Atoms         KinEng            CPU 
 6049346      237     0.61335318              0 
 6172802      233     0.44564481      1275.9551 
Loop time of 1275.96 on 40 procs for 123456 steps with 233 atoms, finish time Wed Jan  4 22:19:25 2023


Pair  time (%) = 0.234404 (0.0183709)
Neigh time (%) = 0.725787 (0.0568819)
Comm  time (%) = 3.69089 (0.289265)
Outpt time (%) = 0.000361056 (2.82969e-05)
Other time (%) = 1271.3 (99.6355)

Nlocal:    5.825 ave 73 max 0 min
Histogram: 34 2 0 1 1 0 0 0 1 1
Nghost:    3.625 ave 44 max 0 min
Histogram: 36 0 0 0 0 1 1 0 1 1
Neighs:    0.875 ave 16 max 0 min
Histogram: 35 2 0 0 2 0 0 0 0 1

Total # of neighbors = 35
Ave neighs/atom = 0.150215
Neighbor list builds = 4027
Dangerous builds = 0
write_dump all custom dump.atom_info_ac_* id type x y z radius vx vy vz density #
run 123456
Setting up run at Wed Jan  4 22:19:26 2023

Memory usage per processor = 958.583 Mbytes
    Step    Atoms         KinEng            CPU 
 6172802      233     0.44564481              0 
 6296258      232      0.3072504      1294.2886 
Loop time of 1294.29 on 40 procs for 123456 steps with 232 atoms, finish time Wed Jan  4 22:41:00 2023


Pair  time (%) = 0.238124 (0.0183981)
Neigh time (%) = 0.944981 (0.0730116)
Comm  time (%) = 4.14436 (0.320204)
Outpt time (%) = 0.000686616 (5.30496e-05)
Other time (%) = 1288.96 (99.5883)

Nlocal:    5.8 ave 75 max 0 min
Histogram: 35 0 1 1 1 0 0 1 0 1
Nghost:    3.45 ave 43 max 0 min
Histogram: 36 0 0 0 0 1 1 1 0 1
Neighs:    0.825 ave 17 max 0 min
Histogram: 36 1 0 1 1 0 0 0 0 1

Total # of neighbors = 33
Ave neighs/atom = 0.142241
Neighbor list builds = 5330
Dangerous builds = 193
write_dump all custom dump.atom_info_ac_* id type x y z radius vx vy vz density #
run 123456
Setting up run at Wed Jan  4 22:41:00 2023

Memory usage per processor = 958.583 Mbytes
    Step    Atoms         KinEng            CPU 
 6296258      232      0.3072504              0 
 6419714      232     0.24808281      1276.4504 
Loop time of 1276.45 on 40 procs for 123456 steps with 232 atoms, finish time Wed Jan  4 23:02:16 2023


Pair  time (%) = 0.236428 (0.0185223)
Neigh time (%) = 0.834527 (0.0653787)
Comm  time (%) = 3.76681 (0.2951)
Outpt time (%) = 0.000425862 (3.3363e-05)
Other time (%) = 1271.61 (99.621)

Nlocal:    5.8 ave 75 max 0 min
Histogram: 35 1 0 1 1 0 0 1 0 1
Nghost:    3.475 ave 41 max 0 min
Histogram: 36 0 0 0 0 0 2 1 0 1
Neighs:    0.9 ave 17 max 0 min
Histogram: 36 1 0 0 1 1 0 0 0 1

Total # of neighbors = 36
Ave neighs/atom = 0.155172
Neighbor list builds = 4593
Dangerous builds = 0
write_dump all custom dump.atom_info_ac_* id type x y z radius vx vy vz density #
run 123456
Setting up run at Wed Jan  4 23:02:16 2023

Memory usage per processor = 958.583 Mbytes
    Step    Atoms         KinEng            CPU 
 6419714      232     0.24808281              0 
 6543170      229      0.4322722      1262.4838 
Loop time of 1262.48 on 40 procs for 123456 steps with 229 atoms, finish time Wed Jan  4 23:23:19 2023


Pair  time (%) = 0.23653 (0.0187353)
Neigh time (%) = 0.733529 (0.058102)
Comm  time (%) = 2.88728 (0.228698)
Outpt time (%) = 0.000354571 (2.80852e-05)
Other time (%) = 1258.63 (99.6944)

Nlocal:    5.725 ave 75 max 0 min
Histogram: 34 1 2 0 1 0 1 0 0 1
Nghost:    3.125 ave 41 max 0 min
Histogram: 36 0 0 0 0 2 0 1 0 1
Neighs:    0.75 ave 14 max 0 min
Histogram: 37 0 0 0 0 2 0 0 0 1

Total # of neighbors = 30
Ave neighs/atom = 0.131004
Neighbor list builds = 4044
Dangerous builds = 50
write_dump all custom dump.atom_info_ac_* id type x y z radius vx vy vz density #
run 123456
Setting up run at Wed Jan  4 23:23:19 2023

Memory usage per processor = 958.583 Mbytes
    Step    Atoms         KinEng            CPU 
 6543170      229      0.4322722              0 
 6666626      226     0.59331101      1243.2335 
Loop time of 1243.23 on 40 procs for 123456 steps with 226 atoms, finish time Wed Jan  4 23:44:02 2023


Pair  time (%) = 0.234685 (0.018877)
Neigh time (%) = 0.575746 (0.0463104)
Comm  time (%) = 1.94126 (0.156146)
Outpt time (%) = 0.0129051 (0.00103802)
Other time (%) = 1240.47 (99.7776)

Nlocal:    5.65 ave 72 max 0 min
Histogram: 33 2 2 0 1 0 0 1 0 1
Nghost:    2.975 ave 40 max 0 min
Histogram: 36 0 0 0 0 2 0 1 0 1
Neighs:    0.95 ave 17 max 0 min
Histogram: 37 0 0 0 0 1 1 0 0 1

Total # of neighbors = 38
Ave neighs/atom = 0.168142
Neighbor list builds = 3297
Dangerous builds = 196
write_dump all custom dump.atom_info_ac_* id type x y z radius vx vy vz density #
run 123456
Setting up run at Wed Jan  4 23:44:02 2023

Memory usage per processor = 958.583 Mbytes
    Step    Atoms         KinEng            CPU 
 6666626      226     0.59331101              0 
 6790082      224     0.44632282      1246.6552 
Loop time of 1246.66 on 40 procs for 123456 steps with 224 atoms, finish time Thu Jan  5 00:04:49 2023


Pair  time (%) = 0.236263 (0.0189517)
Neigh time (%) = 0.822099 (0.0659444)
Comm  time (%) = 2.72307 (0.21843)
Outpt time (%) = 0.000692762 (5.55696e-05)
Other time (%) = 1242.87 (99.6966)

Nlocal:    5.6 ave 71 max 0 min
Histogram: 32 4 1 1 0 0 0 1 0 1
Nghost:    3 ave 38 max 0 min
Histogram: 36 0 0 0 0 2 0 0 1 1
Neighs:    1.025 ave 17 max 0 min
Histogram: 37 0 0 0 0 0 1 1 0 1

Total # of neighbors = 41
Ave neighs/atom = 0.183036
Neighbor list builds = 4510
Dangerous builds = 45
write_dump all custom dump.atom_info_ac_* id type x y z radius vx vy vz density #
run 123456
Setting up run at Thu Jan  5 00:04:49 2023

Memory usage per processor = 958.583 Mbytes
    Step    Atoms         KinEng            CPU 
 6790082      224     0.44632282              0 
 6913538      222     0.32322809      1249.8647 
Loop time of 1249.87 on 40 procs for 123456 steps with 222 atoms, finish time Thu Jan  5 00:25:39 2023


Pair  time (%) = 0.238323 (0.0190679)
Neigh time (%) = 0.767308 (0.0613912)
Comm  time (%) = 2.58022 (0.20644)
Outpt time (%) = 0.000330528 (2.64451e-05)
Other time (%) = 1246.28 (99.7131)

Nlocal:    5.55 ave 68 max 0 min
Histogram: 32 4 1 0 1 0 0 1 0 1
Nghost:    3.025 ave 43 max 0 min
Histogram: 36 0 0 0 2 0 0 1 0 1
Neighs:    1.025 ave 17 max 0 min
Histogram: 36 1 0 0 0 1 1 0 0 1

Total # of neighbors = 41
Ave neighs/atom = 0.184685
Neighbor list builds = 4272
Dangerous builds = 177
write_dump all custom dump.atom_info_ac_* id type x y z radius vx vy vz density #
run 123456
Setting up run at Thu Jan  5 00:25:39 2023

Memory usage per processor = 958.583 Mbytes
    Step    Atoms         KinEng            CPU 
 6913538      222     0.32322809              0 
 7036994      219     0.40003056      1238.3758 
Loop time of 1238.38 on 40 procs for 123456 steps with 219 atoms, finish time Thu Jan  5 00:46:17 2023


Pair  time (%) = 0.234785 (0.018959)
Neigh time (%) = 0.570901 (0.0461005)
Comm  time (%) = 2.17052 (0.175271)
Outpt time (%) = 0.000296215 (2.39195e-05)
Other time (%) = 1235.4 (99.7596)

Nlocal:    5.475 ave 67 max 0 min
Histogram: 32 4 1 0 1 0 0 1 0 1
Nghost:    2.85 ave 42 max 0 min
Histogram: 36 0 0 0 2 0 0 1 0 1
Neighs:    0.875 ave 14 max 0 min
Histogram: 37 0 0 0 0 0 0 2 0 1

Total # of neighbors = 35
Ave neighs/atom = 0.159817
Neighbor list builds = 3128
Dangerous builds = 7
write_dump all custom dump.atom_info_ac_* id type x y z radius vx vy vz density #
run 123456
Setting up run at Thu Jan  5 00:46:17 2023

Memory usage per processor = 958.583 Mbytes
    Step    Atoms         KinEng            CPU 
 7036994      219     0.40003056              0 
 7160450      215     0.35198374       1245.294 
Loop time of 1245.29 on 40 procs for 123456 steps with 215 atoms, finish time Thu Jan  5 01:07:03 2023


Pair  time (%) = 0.236381 (0.018982)
Neigh time (%) = 0.777931 (0.0624696)
Comm  time (%) = 2.85202 (0.229024)
Outpt time (%) = 0.000698393 (5.60826e-05)
Other time (%) = 1241.43 (99.6895)

Nlocal:    5.375 ave 68 max 0 min
Histogram: 32 4 1 0 0 1 0 1 0 1
Nghost:    2.85 ave 41 max 0 min
Histogram: 36 0 0 0 1 1 0 1 0 1
Neighs:    0.85 ave 12 max 0 min
Histogram: 37 0 0 0 0 0 1 0 0 2

Total # of neighbors = 34
Ave neighs/atom = 0.15814
Neighbor list builds = 4437
Dangerous builds = 386
write_dump all custom dump.atom_info_ac_* id type x y z radius vx vy vz density #
run 123456
Setting up run at Thu Jan  5 01:07:03 2023

Memory usage per processor = 958.583 Mbytes
    Step    Atoms         KinEng            CPU 
 7160450      215     0.35198374              0 
 7283906      211     0.30815425      1253.5127 
Loop time of 1253.51 on 40 procs for 123456 steps with 211 atoms, finish time Thu Jan  5 01:27:56 2023


Pair  time (%) = 0.239349 (0.0190943)
Neigh time (%) = 1.10302 (0.0879941)
Comm  time (%) = 3.83016 (0.305554)
Outpt time (%) = 0.000294395 (2.34856e-05)
Other time (%) = 1248.34 (99.5873)

Nlocal:    5.275 ave 70 max 0 min
Histogram: 34 2 0 2 0 0 1 0 0 1
Nghost:    2.85 ave 38 max 0 min
Histogram: 36 0 0 0 0 2 0 0 1 1
Neighs:    0.85 ave 13 max 0 min
Histogram: 37 0 0 0 0 0 1 0 1 1

Total # of neighbors = 34
Ave neighs/atom = 0.161137
Neighbor list builds = 6086
Dangerous builds = 42
write_dump all custom dump.atom_info_ac_* id type x y z radius vx vy vz density #
run 123456
Setting up run at Thu Jan  5 01:27:56 2023

Memory usage per processor = 958.583 Mbytes
    Step    Atoms         KinEng            CPU 
 7283906      211     0.30815425              0 
 7407362      211      0.3638913      1242.4823 
Loop time of 1242.48 on 40 procs for 123456 steps with 211 atoms, finish time Thu Jan  5 01:48:39 2023


Pair  time (%) = 0.233846 (0.0188209)
Neigh time (%) = 0.701176 (0.0564335)
Comm  time (%) = 2.9316 (0.235947)
Outpt time (%) = 0.000389005 (3.13087e-05)
Other time (%) = 1238.62 (99.6888)

Nlocal:    5.275 ave 67 max 0 min
Histogram: 34 2 0 1 0 1 0 1 0 1
Nghost:    2.9 ave 38 max 0 min
Histogram: 36 0 0 0 1 1 0 0 1 1
Neighs:    0.725 ave 14 max 0 min
Histogram: 36 1 0 1 0 1 0 0 0 1

Total # of neighbors = 29
Ave neighs/atom = 0.137441
Neighbor list builds = 3832
Dangerous builds = 0
write_dump all custom dump.atom_info_ac_* id type x y z radius vx vy vz density #
run 123456
Setting up run at Thu Jan  5 01:48:39 2023

Memory usage per processor = 958.583 Mbytes
    Step    Atoms         KinEng            CPU 
 7407362      211      0.3638913              0 
 7530818      211      0.8231064      1260.6234 
Loop time of 1260.62 on 40 procs for 123456 steps with 211 atoms, finish time Thu Jan  5 02:09:40 2023


Pair  time (%) = 0.242466 (0.0192338)
Neigh time (%) = 1.33452 (0.105862)
Comm  time (%) = 4.41346 (0.350101)
Outpt time (%) = 0.000647468 (5.1361e-05)
Other time (%) = 1254.63 (99.5248)

Nlocal:    5.275 ave 67 max 0 min
Histogram: 33 3 0 2 0 0 0 1 0 1
Nghost:    2.775 ave 37 max 0 min
Histogram: 36 0 0 0 1 1 0 0 1 1
Neighs:    0.575 ave 12 max 0 min
Histogram: 37 0 0 1 0 1 0 0 0 1

Total # of neighbors = 23
Ave neighs/atom = 0.109005
Neighbor list builds = 7329
Dangerous builds = 0
write_dump all custom dump.atom_info_ac_* id type x y z radius vx vy vz density #
run 123456
Setting up run at Thu Jan  5 02:09:40 2023

Memory usage per processor = 958.583 Mbytes
    Step    Atoms         KinEng            CPU 
 7530818      211      0.8231064              0 
 7654274      209     0.75743854      1263.6786 
Loop time of 1263.68 on 40 procs for 123456 steps with 209 atoms, finish time Thu Jan  5 02:30:43 2023


Pair  time (%) = 0.244671 (0.0193618)
Neigh time (%) = 1.49022 (0.117927)
Comm  time (%) = 4.50712 (0.356666)
Outpt time (%) = 0.000385916 (3.05391e-05)
Other time (%) = 1257.44 (99.506)

Nlocal:    5.225 ave 68 max 0 min
Histogram: 32 4 1 0 1 0 1 0 0 1
Nghost:    2.8 ave 38 max 0 min
Histogram: 36 0 0 0 1 1 0 1 0 1
Neighs:    0.625 ave 12 max 0 min
Histogram: 36 1 0 1 0 1 0 0 0 1

Total # of neighbors = 25
Ave neighs/atom = 0.119617
Neighbor list builds = 8155
Dangerous builds = 0
write_dump all custom dump.atom_info_ac_* id type x y z radius vx vy vz density #
run 123456
Setting up run at Thu Jan  5 02:30:43 2023

Memory usage per processor = 958.583 Mbytes
    Step    Atoms         KinEng            CPU 
 7654274      209     0.75743854              0 
 7777730      207     0.85121168      1265.9792 
Loop time of 1265.98 on 40 procs for 123456 steps with 207 atoms, finish time Thu Jan  5 02:51:49 2023


Pair  time (%) = 0.242817 (0.0191802)
Neigh time (%) = 1.50128 (0.118586)
Comm  time (%) = 6.56015 (0.518188)
Outpt time (%) = 0.000351239 (2.77445e-05)
Other time (%) = 1257.67 (99.344)

Nlocal:    5.175 ave 72 max 0 min
Histogram: 34 2 0 2 0 1 0 0 0 1
Nghost:    2.6 ave 34 max 0 min
Histogram: 36 0 0 0 1 1 0 0 0 2
Neighs:    0.65 ave 10 max 0 min
Histogram: 35 1 0 0 0 3 0 0 0 1

Total # of neighbors = 26
Ave neighs/atom = 0.125604
Neighbor list builds = 8409
Dangerous builds = 1
write_dump all custom dump.atom_info_ac_* id type x y z radius vx vy vz density #
run 123456
Setting up run at Thu Jan  5 02:51:49 2023

Memory usage per processor = 958.583 Mbytes
    Step    Atoms         KinEng            CPU 
 7777730      207     0.85121168              0 
 7901186      203      0.9362743      1270.6834 
Loop time of 1270.68 on 40 procs for 123456 steps with 203 atoms, finish time Thu Jan  5 03:13:00 2023


Pair  time (%) = 0.2413 (0.0189898)
Neigh time (%) = 1.49785 (0.117877)
Comm  time (%) = 6.66318 (0.524378)
Outpt time (%) = 0.000617451 (4.85921e-05)
Other time (%) = 1262.28 (99.3387)

Nlocal:    5.075 ave 72 max 0 min
Histogram: 34 2 0 1 1 1 0 0 0 1
Nghost:    2.7 ave 33 max 0 min
Histogram: 36 0 0 0 1 1 0 0 0 2
Neighs:    0.575 ave 10 max 0 min
Histogram: 36 0 0 1 0 2 0 0 0 1

Total # of neighbors = 23
Ave neighs/atom = 0.1133
Neighbor list builds = 8251
Dangerous builds = 1
write_dump all custom dump.atom_info_ac_* id type x y z radius vx vy vz density #
run 123456
Setting up run at Thu Jan  5 03:13:00 2023

Memory usage per processor = 958.583 Mbytes
    Step    Atoms         KinEng            CPU 
 7901186      203      0.9362743              0 
 8024642      201     0.83150037      1260.1852 
Loop time of 1260.19 on 40 procs for 123456 steps with 201 atoms, finish time Thu Jan  5 03:34:00 2023


Pair  time (%) = 0.241196 (0.0191397)
Neigh time (%) = 1.51437 (0.120171)
Comm  time (%) = 4.21407 (0.3344)
Outpt time (%) = 0.000352721 (2.79896e-05)
Other time (%) = 1254.22 (99.5263)

Nlocal:    5.025 ave 72 max 0 min
Histogram: 34 2 0 1 2 0 0 0 0 1
Nghost:    2.525 ave 32 max 0 min
Histogram: 36 0 0 0 0 2 0 0 0 2
Neighs:    0.625 ave 10 max 0 min
Histogram: 35 1 0 0 1 2 0 0 0 1

Total # of neighbors = 25
Ave neighs/atom = 0.124378
Neighbor list builds = 8322
Dangerous builds = 1
write_dump all custom dump.atom_info_ac_* id type x y z radius vx vy vz density #
run 123456
Setting up run at Thu Jan  5 03:34:00 2023

Memory usage per processor = 958.583 Mbytes
    Step    Atoms         KinEng            CPU 
 8024642      201     0.83150037              0 
 8148098      200     0.81322927      1271.5239 
Loop time of 1271.52 on 40 procs for 123456 steps with 200 atoms, finish time Thu Jan  5 03:55:12 2023


Pair  time (%) = 0.240868 (0.0189432)
Neigh time (%) = 1.52702 (0.120094)
Comm  time (%) = 4.59073 (0.361041)
Outpt time (%) = 0.000405073 (3.18573e-05)
Other time (%) = 1265.16 (99.4999)

Nlocal:    5 ave 72 max 0 min
Histogram: 34 2 0 1 2 0 0 0 0 1
Nghost:    2.5 ave 34 max 0 min
Histogram: 36 0 0 1 0 1 0 0 1 1
Neighs:    0.575 ave 9 max 0 min
Histogram: 36 0 0 0 1 2 0 0 0 1

Total # of neighbors = 23
Ave neighs/atom = 0.115
Neighbor list builds = 8325
Dangerous builds = 1
write_dump all custom dump.atom_info_ac_* id type x y z radius vx vy vz density #
run 123456
Setting up run at Thu Jan  5 03:55:12 2023

Memory usage per processor = 958.583 Mbytes
    Step    Atoms         KinEng            CPU 
 8148098      200     0.81322927              0 
 8271554      195     0.85895093      1271.1455 
Loop time of 1271.15 on 40 procs for 123456 steps with 195 atoms, finish time Thu Jan  5 04:16:23 2023


Pair  time (%) = 0.241918 (0.0190315)
Neigh time (%) = 1.83704 (0.144519)
Comm  time (%) = 4.81381 (0.378698)
Outpt time (%) = 0.000670456 (5.27442e-05)
Other time (%) = 1264.25 (99.4577)

Nlocal:    4.875 ave 71 max 0 min
Histogram: 33 3 0 2 1 0 0 0 0 1
Nghost:    2.375 ave 31 max 0 min
Histogram: 36 0 0 1 0 0 1 0 1 1
Neighs:    0.6 ave 11 max 0 min
Histogram: 36 0 1 1 1 0 0 0 0 1

Total # of neighbors = 24
Ave neighs/atom = 0.123077
Neighbor list builds = 10389
Dangerous builds = 318
write_dump all custom dump.atom_info_ac_* id type x y z radius vx vy vz density #
run 123456
Setting up run at Thu Jan  5 04:16:23 2023

Memory usage per processor = 958.583 Mbytes
    Step    Atoms         KinEng            CPU 
 8271554      195     0.85895093              0 
 8395010      193     0.83135265       1263.153 
Loop time of 1263.15 on 40 procs for 123456 steps with 193 atoms, finish time Thu Jan  5 04:37:26 2023


Pair  time (%) = 0.238129 (0.0188519)
Neigh time (%) = 1.4611 (0.115671)
Comm  time (%) = 4.9157 (0.389161)
Outpt time (%) = 0.000322046 (2.54954e-05)
Other time (%) = 1256.54 (99.4763)

Nlocal:    4.825 ave 72 max 0 min
Histogram: 34 2 1 1 1 0 0 0 0 1
Nghost:    2.825 ave 33 max 0 min
Histogram: 35 1 0 0 1 1 0 0 1 1
Neighs:    0.675 ave 13 max 0 min
Histogram: 36 0 0 2 1 0 0 0 0 1

Total # of neighbors = 27
Ave neighs/atom = 0.139896
Neighbor list builds = 8017
Dangerous builds = 1
write_dump all custom dump.atom_info_ac_* id type x y z radius vx vy vz density #
run 123456
Setting up run at Thu Jan  5 04:37:26 2023

Memory usage per processor = 958.583 Mbytes
    Step    Atoms         KinEng            CPU 
 8395010      193     0.83135265              0 
 8518466      191     0.96640401      1271.1772 
Loop time of 1271.18 on 40 procs for 123456 steps with 191 atoms, finish time Thu Jan  5 04:58:38 2023


Pair  time (%) = 0.238009 (0.0187235)
Neigh time (%) = 1.47132 (0.115745)
Comm  time (%) = 4.1954 (0.33004)
Outpt time (%) = 0.000383184 (3.0144e-05)
Other time (%) = 1265.27 (99.5355)

Nlocal:    4.775 ave 70 max 0 min
Histogram: 35 1 0 1 2 0 0 0 0 1
Nghost:    2.4 ave 29 max 0 min
Histogram: 36 0 0 0 1 0 1 0 0 2
Neighs:    0.575 ave 12 max 0 min
Histogram: 37 0 1 0 0 1 0 0 0 1

Total # of neighbors = 23
Ave neighs/atom = 0.120419
Neighbor list builds = 7997
Dangerous builds = 0
write_dump all custom dump.atom_info_ac_* id type x y z radius vx vy vz density #
run 123456
Setting up run at Thu Jan  5 04:58:38 2023

Memory usage per processor = 958.583 Mbytes
    Step    Atoms         KinEng            CPU 
 8518466      191     0.96640401              0 
 8641922      190     0.93078326      1260.9625 
Loop time of 1260.96 on 40 procs for 123456 steps with 190 atoms, finish time Thu Jan  5 05:19:39 2023


Pair  time (%) = 0.236865 (0.0187845)
Neigh time (%) = 1.39869 (0.110922)
Comm  time (%) = 4.81562 (0.3819)
Outpt time (%) = 0.00057202 (4.53638e-05)
Other time (%) = 1254.51 (99.4883)

Nlocal:    4.75 ave 70 max 0 min
Histogram: 33 3 1 1 1 0 0 0 0 1
Nghost:    2.5 ave 31 max 0 min
Histogram: 36 0 0 0 1 0 1 0 0 2
Neighs:    0.575 ave 13 max 0 min
Histogram: 37 0 1 0 1 0 0 0 0 1

Total # of neighbors = 23
Ave neighs/atom = 0.121053
Neighbor list builds = 7612
Dangerous builds = 24
write_dump all custom dump.atom_info_ac_* id type x y z radius vx vy vz density #
run 123456
Setting up run at Thu Jan  5 05:19:39 2023

Memory usage per processor = 958.583 Mbytes
    Step    Atoms         KinEng            CPU 
 8641922      190     0.93078326              0 
 8765378      186     0.92795995       1263.119 
Loop time of 1263.12 on 40 procs for 123456 steps with 186 atoms, finish time Thu Jan  5 05:40:42 2023


Pair  time (%) = 0.235525 (0.0186463)
Neigh time (%) = 1.4408 (0.114067)
Comm  time (%) = 4.1702 (0.330151)
Outpt time (%) = 0.000339737 (2.68967e-05)
Other time (%) = 1257.27 (99.5371)

Nlocal:    4.65 ave 68 max 0 min
Histogram: 33 3 0 2 1 0 0 0 0 1
Nghost:    2.5 ave 29 max 0 min
Histogram: 36 0 0 0 0 1 1 0 0 2
Neighs:    0.575 ave 15 max 0 min
Histogram: 37 0 1 1 0 0 0 0 0 1

Total # of neighbors = 23
Ave neighs/atom = 0.123656
Neighbor list builds = 7908
Dangerous builds = 124
write_dump all custom dump.atom_info_ac_* id type x y z radius vx vy vz density #
run 123456
Setting up run at Thu Jan  5 05:40:42 2023

Memory usage per processor = 958.583 Mbytes
    Step    Atoms         KinEng            CPU 
 8765378      186     0.92795995              0 
 8888834      183      1.0330971      1265.2141 
Loop time of 1265.21 on 40 procs for 123456 steps with 183 atoms, finish time Thu Jan  5 06:01:47 2023


Pair  time (%) = 0.238871 (0.0188799)
Neigh time (%) = 1.56068 (0.123353)
Comm  time (%) = 4.60397 (0.363888)
Outpt time (%) = 0.00029542 (2.33494e-05)
Other time (%) = 1258.81 (99.4939)

Nlocal:    4.575 ave 68 max 0 min
Histogram: 35 1 0 2 1 0 0 0 0 1
Nghost:    2.375 ave 30 max 0 min
Histogram: 36 0 0 0 1 0 1 0 0 2
Neighs:    0.6 ave 14 max 0 min
Histogram: 37 0 1 0 1 0 0 0 0 1

Total # of neighbors = 24
Ave neighs/atom = 0.131148
Neighbor list builds = 8587
Dangerous builds = 2
write_dump all custom dump.atom_info_ac_* id type x y z radius vx vy vz density #
run 123456
Setting up run at Thu Jan  5 06:01:47 2023

Memory usage per processor = 958.583 Mbytes
    Step    Atoms         KinEng            CPU 
 8888834      183      1.0330971              0 
 9012290      178     0.95726593      1260.9286 
Loop time of 1260.93 on 40 procs for 123456 steps with 178 atoms, finish time Thu Jan  5 06:22:48 2023


Pair  time (%) = 0.23669 (0.0187711)
Neigh time (%) = 1.42516 (0.113024)
Comm  time (%) = 4.04631 (0.320899)
Outpt time (%) = 0.000629583 (4.99301e-05)
Other time (%) = 1255.22 (99.5473)

Nlocal:    4.45 ave 68 max 0 min
Histogram: 33 3 1 1 1 0 0 0 0 1
Nghost:    2.35 ave 30 max 0 min
Histogram: 36 0 0 0 1 0 1 0 0 2
Neighs:    0.575 ave 13 max 0 min
Histogram: 36 2 0 0 1 0 0 0 0 1

Total # of neighbors = 23
Ave neighs/atom = 0.129213
Neighbor list builds = 7807
Dangerous builds = 140
write_dump all custom dump.atom_info_ac_* id type x y z radius vx vy vz density #
run 123456
Setting up run at Thu Jan  5 06:22:48 2023

Memory usage per processor = 958.583 Mbytes
    Step    Atoms         KinEng            CPU 
 9012290      178     0.95726593              0 
 9135746      177     0.64203989       1248.941 
Loop time of 1248.94 on 40 procs for 123456 steps with 177 atoms, finish time Thu Jan  5 06:43:37 2023


Pair  time (%) = 0.232281 (0.0185983)
Neigh time (%) = 0.96366 (0.0771582)
Comm  time (%) = 2.81464 (0.225362)
Outpt time (%) = 0.000369612 (2.9594e-05)
Other time (%) = 1244.93 (99.6789)

Nlocal:    4.425 ave 69 max 0 min
Histogram: 33 3 1 1 1 0 0 0 0 1
Nghost:    2.3 ave 27 max 0 min
Histogram: 36 0 0 0 1 0 0 0 1 2
Neighs:    0.6 ave 14 max 0 min
Histogram: 37 1 0 0 1 0 0 0 0 1

Total # of neighbors = 24
Ave neighs/atom = 0.135593
Neighbor list builds = 5228
Dangerous builds = 0
write_dump all custom dump.atom_info_ac_* id type x y z radius vx vy vz density #
run 123456
Setting up run at Thu Jan  5 06:43:37 2023

Memory usage per processor = 958.583 Mbytes
    Step    Atoms         KinEng            CPU 
 9135746      177     0.64203989              0 
 9259202      175     0.68542813      1249.3915 
Loop time of 1249.39 on 40 procs for 123456 steps with 175 atoms, finish time Thu Jan  5 07:04:27 2023


Pair  time (%) = 0.232988 (0.0186481)
Neigh time (%) = 0.990383 (0.0792693)
Comm  time (%) = 3.15699 (0.252682)
Outpt time (%) = 0.000362538 (2.90172e-05)
Other time (%) = 1245.01 (99.6494)

Nlocal:    4.375 ave 69 max 0 min
Histogram: 33 3 1 1 1 0 0 0 0 1
Nghost:    2.45 ave 26 max 0 min
Histogram: 36 0 0 0 0 1 0 0 0 3
Neighs:    0.575 ave 11 max 0 min
Histogram: 36 2 0 0 0 0 1 0 0 1

Total # of neighbors = 23
Ave neighs/atom = 0.131429
Neighbor list builds = 5525
Dangerous builds = 273
write_dump all custom dump.atom_info_ac_* id type x y z radius vx vy vz density #
run 123456
Setting up run at Thu Jan  5 07:04:27 2023

Memory usage per processor = 958.583 Mbytes
    Step    Atoms         KinEng            CPU 
 9259202      175     0.68542813              0 
 9382658      173     0.48632262      1259.1859 
Loop time of 1259.19 on 40 procs for 123456 steps with 173 atoms, finish time Thu Jan  5 07:25:26 2023


Pair  time (%) = 0.233236 (0.0185228)
Neigh time (%) = 0.895257 (0.0710981)
Comm  time (%) = 2.77777 (0.2206)
Outpt time (%) = 0.000640465 (5.08634e-05)
Other time (%) = 1255.28 (99.6897)

Nlocal:    4.325 ave 64 max 0 min
Histogram: 34 2 0 2 1 0 0 0 0 1
Nghost:    2.5 ave 27 max 0 min
Histogram: 35 1 0 0 0 1 0 0 1 2
Neighs:    0.625 ave 15 max 0 min
Histogram: 37 0 1 0 1 0 0 0 0 1

Total # of neighbors = 25
Ave neighs/atom = 0.144509
Neighbor list builds = 4934
Dangerous builds = 150
write_dump all custom dump.atom_info_ac_* id type x y z radius vx vy vz density #
run 123456
Setting up run at Thu Jan  5 07:25:26 2023

Memory usage per processor = 958.583 Mbytes
    Step    Atoms         KinEng            CPU 
 9382658      173     0.48632262              0 
 9506114      171     0.68228299      1246.7682 
Loop time of 1246.77 on 40 procs for 123456 steps with 171 atoms, finish time Thu Jan  5 07:46:13 2023


Pair  time (%) = 0.231965 (0.0186053)
Neigh time (%) = 0.869202 (0.0697163)
Comm  time (%) = 2.41141 (0.193413)
Outpt time (%) = 0.000370792 (2.97403e-05)
Other time (%) = 1243.26 (99.7182)

Nlocal:    4.275 ave 63 max 0 min
Histogram: 33 3 0 2 1 0 0 0 0 1
Nghost:    2.35 ave 25 max 0 min
Histogram: 36 0 0 0 0 0 1 0 0 3
Neighs:    0.625 ave 14 max 0 min
Histogram: 37 0 1 0 0 1 0 0 0 1

Total # of neighbors = 25
Ave neighs/atom = 0.146199
Neighbor list builds = 4717
Dangerous builds = 1
write_dump all custom dump.atom_info_ac_* id type x y z radius vx vy vz density #
run 123456
Setting up run at Thu Jan  5 07:46:13 2023

Memory usage per processor = 958.583 Mbytes
    Step    Atoms         KinEng            CPU 
 9506114      171     0.68228299              0 
 9629570      169      1.1063317      1240.5496 
Loop time of 1240.55 on 40 procs for 123456 steps with 169 atoms, finish time Thu Jan  5 08:06:54 2023


Pair  time (%) = 0.229654 (0.0185123)
Neigh time (%) = 0.720987 (0.0581184)
Comm  time (%) = 2.19176 (0.176676)
Outpt time (%) = 0.000344906 (2.78027e-05)
Other time (%) = 1237.41 (99.7467)

Nlocal:    4.225 ave 62 max 0 min
Histogram: 34 1 2 1 1 0 0 0 0 1
Nghost:    2.275 ave 24 max 0 min
Histogram: 36 0 0 0 0 0 0 1 1 2
Neighs:    0.6 ave 12 max 0 min
Histogram: 36 1 1 0 0 1 0 0 0 1

Total # of neighbors = 24
Ave neighs/atom = 0.142012
Neighbor list builds = 3947
Dangerous builds = 110
write_dump all custom dump.atom_info_ac_* id type x y z radius vx vy vz density #
run 123456
Setting up run at Thu Jan  5 08:06:54 2023

Memory usage per processor = 958.583 Mbytes
    Step    Atoms         KinEng            CPU 
 9629570      169      1.1063317              0 
 9753026      166     0.45494339       1251.714 
Loop time of 1251.71 on 40 procs for 123456 steps with 166 atoms, finish time Thu Jan  5 08:27:45 2023


Pair  time (%) = 0.229111 (0.0183038)
Neigh time (%) = 0.929865 (0.0742873)
Comm  time (%) = 2.46863 (0.19722)
Outpt time (%) = 0.000584427 (4.66901e-05)
Other time (%) = 1248.09 (99.7101)

Nlocal:    4.15 ave 60 max 0 min
Histogram: 33 2 2 1 1 0 0 0 0 1
Nghost:    2.3 ave 24 max 0 min
Histogram: 36 0 0 0 0 1 0 0 0 3
Neighs:    0.575 ave 13 max 0 min
Histogram: 37 1 0 0 0 1 0 0 0 1

Total # of neighbors = 23
Ave neighs/atom = 0.138554
Neighbor list builds = 5063
Dangerous builds = 2
write_dump all custom dump.atom_info_ac_* id type x y z radius vx vy vz density #
run 123456
Setting up run at Thu Jan  5 08:27:45 2023

Memory usage per processor = 958.583 Mbytes
    Step    Atoms         KinEng            CPU 
 9753026      166     0.45494339              0 
 9876482      165     0.43822149      1252.7827 
Loop time of 1252.78 on 40 procs for 123456 steps with 165 atoms, finish time Thu Jan  5 08:48:38 2023


Pair  time (%) = 0.232361 (0.0185476)
Neigh time (%) = 1.22849 (0.0980607)
Comm  time (%) = 3.11641 (0.248759)
Outpt time (%) = 0.000380759 (3.03931e-05)
Other time (%) = 1248.21 (99.6346)

Nlocal:    4.125 ave 60 max 0 min
Histogram: 34 2 0 2 1 0 0 0 0 1
Nghost:    2.15 ave 23 max 0 min
Histogram: 35 1 0 0 0 0 1 1 0 2
Neighs:    0.525 ave 12 max 0 min
Histogram: 37 1 0 0 0 1 0 0 0 1

Total # of neighbors = 21
Ave neighs/atom = 0.127273
Neighbor list builds = 6638
Dangerous builds = 0
write_dump all custom dump.atom_info_ac_* id type x y z radius vx vy vz density #
run 123456
Setting up run at Thu Jan  5 08:48:38 2023

Memory usage per processor = 958.583 Mbytes
    Step    Atoms         KinEng            CPU 
[...]

Memory usage per processor = 958.583 Mbytes
    Step    Atoms         KinEng            CPU 
22098704       56     0.20036974              0 
22222160       55     0.25833946      1231.2888 
Loop time of 1231.29 on 40 procs for 123456 steps with 55 atoms, finish time Fri Jan  6 20:26:33 2023


Pair  time (%) = 0.218551 (0.0177498)
Neigh time (%) = 0.587532 (0.0477168)
Comm  time (%) = 1.22226 (0.0992666)
Outpt time (%) = 0.000504797 (4.09975e-05)
Other time (%) = 1229.26 (99.8352)

Nlocal:    1.375 ave 19 max 0 min
Histogram: 32 5 0 1 0 0 0 1 0 1
Nghost:    0.625 ave 8 max 0 min
Histogram: 34 2 1 0 0 0 0 1 1 1
Neighs:    0 ave 0 max 0 min
Histogram: 40 0 0 0 0 0 0 0 0 0

Total # of neighbors = 0
Ave neighs/atom = 0
Neighbor list builds = 3264
Dangerous builds = 1
write_dump all custom dump.atom_info_ac_* id type x y z radius vx vy vz density #
run 123456
Setting up run at Fri Jan  6 20:26:33 2023

Memory usage per processor = 958.583 Mbytes
    Step    Atoms         KinEng            CPU 
22222160       55     0.25833946              0 
22345616       54     0.18884315      1243.6952 
Loop time of 1243.7 on 40 procs for 123456 steps with 54 atoms, finish time Fri Jan  6 20:47:17 2023


Pair  time (%) = 0.216629 (0.0174181)
Neigh time (%) = 0.573796 (0.0461362)
Comm  time (%) = 1.18298 (0.0951175)
Outpt time (%) = 0.000332111 (2.67035e-05)
Other time (%) = 1241.73 (99.8413)

Nlocal:    1.35 ave 19 max 0 min
Histogram: 33 3 1 1 0 0 0 1 0 1
Nghost:    0.525 ave 8 max 0 min
Histogram: 35 2 0 0 0 0 1 1 0 1
Neighs:    0 ave 0 max 0 min
Histogram: 40 0 0 0 0 0 0 0 0 0

Total # of neighbors = 0
Ave neighs/atom = 0
Neighbor list builds = 3078
Dangerous builds = 8
write_dump all custom dump.atom_info_ac_* id type x y z radius vx vy vz density #
run 123456
Setting up run at Fri Jan  6 20:47:17 2023

Memory usage per processor = 958.583 Mbytes
    Step    Atoms         KinEng            CPU 
22345616       54     0.18884315              0 
22469072       53      0.1932288      1228.5277 
Loop time of 1228.53 on 40 procs for 123456 steps with 53 atoms, finish time Fri Jan  6 21:07:45 2023


Pair  time (%) = 0.216305 (0.0176069)
Neigh time (%) = 0.444857 (0.0362106)
Comm  time (%) = 1.08694 (0.0884751)
Outpt time (%) = 0.000298588 (2.43046e-05)
Other time (%) = 1226.78 (99.8577)

Nlocal:    1.325 ave 19 max 0 min
Histogram: 33 4 0 0 1 0 0 1 0 1
Nghost:    0.65 ave 9 max 0 min
Histogram: 31 5 1 0 0 2 0 0 0 1
Neighs:    0 ave 0 max 0 min
Histogram: 40 0 0 0 0 0 0 0 0 0

Total # of neighbors = 0
Ave neighs/atom = 0
Neighbor list builds = 2379
Dangerous builds = 0
write_dump all custom dump.atom_info_ac_* id type x y z radius vx vy vz density #
run 123456
Setting up run at Fri Jan  6 21:07:45 2023

Memory usage per processor = 958.583 Mbytes
    Step    Atoms         KinEng            CPU 
22469072       53      0.1932288              0 
22592528       53     0.22172227      1237.4755 
Loop time of 1237.48 on 40 procs for 123456 steps with 53 atoms, finish time Fri Jan  6 21:28:23 2023


Pair  time (%) = 0.218435 (0.0176517)
Neigh time (%) = 0.615269 (0.0497197)
Comm  time (%) = 1.17658 (0.0950794)
Outpt time (%) = 0.000329241 (2.66058e-05)
Other time (%) = 1235.46 (99.8375)

Nlocal:    1.325 ave 19 max 0 min
Histogram: 32 4 2 0 0 0 0 0 1 1
Nghost:    0.525 ave 8 max 0 min
Histogram: 34 3 0 0 0 0 2 0 0 1
Neighs:    0 ave 0 max 0 min
Histogram: 40 0 0 0 0 0 0 0 0 0

Total # of neighbors = 0
Ave neighs/atom = 0
Neighbor list builds = 3283
Dangerous builds = 0
write_dump all custom dump.atom_info_ac_* id type x y z radius vx vy vz density #
run 123456
Setting up run at Fri Jan  6 21:28:23 2023

Memory usage per processor = 958.583 Mbytes
    Step    Atoms         KinEng            CPU 
22592528       53     0.22172227              0 
22715984       52      0.1636732      1229.1431 
Loop time of 1229.14 on 40 procs for 123456 steps with 52 atoms, finish time Fri Jan  6 21:48:52 2023


Pair  time (%) = 0.215513 (0.0175336)
Neigh time (%) = 0.45431 (0.0369615)
Comm  time (%) = 1.06429 (0.0865879)
Outpt time (%) = 0.000632518 (5.14601e-05)
Other time (%) = 1227.41 (99.8589)

Nlocal:    1.3 ave 18 max 0 min
Histogram: 34 3 0 1 0 0 0 0 1 1
Nghost:    0.525 ave 8 max 0 min
Histogram: 34 3 0 0 0 1 0 1 0 1
Neighs:    0 ave 0 max 0 min
Histogram: 40 0 0 0 0 0 0 0 0 0

Total # of neighbors = 0
Ave neighs/atom = 0
Neighbor list builds = 2427
Dangerous builds = 0
write_dump all custom dump.atom_info_ac_* id type x y z radius vx vy vz density #
run 123456
Setting up run at Fri Jan  6 21:48:52 2023

Memory usage per processor = 958.583 Mbytes
    Step    Atoms         KinEng            CPU 
22715984       52      0.1636732              0 
22839440       51     0.11675796      1243.2588 
Loop time of 1243.26 on 40 procs for 123456 steps with 51 atoms, finish time Fri Jan  6 22:09:35 2023


Pair  time (%) = 0.216065 (0.0173789)
Neigh time (%) = 0.524119 (0.0421569)
Comm  time (%) = 1.10082 (0.0885429)
Outpt time (%) = 0.000342282 (2.7531e-05)
Other time (%) = 1241.42 (99.8519)

Nlocal:    1.275 ave 17 max 0 min
Histogram: 33 4 0 1 0 0 0 0 0 2
Nghost:    0.525 ave 7 max 0 min
Histogram: 33 3 1 0 0 1 0 1 0 1
Neighs:    0.05 ave 2 max 0 min
Histogram: 39 0 0 0 0 0 0 0 0 1

Total # of neighbors = 2
Ave neighs/atom = 0.0392157
Neighbor list builds = 2801
Dangerous builds = 0
write_dump all custom dump.atom_info_ac_* id type x y z radius vx vy vz density #
run 123456
Setting up run at Fri Jan  6 22:09:35 2023

Memory usage per processor = 958.583 Mbytes
    Step    Atoms         KinEng            CPU 
22839440       51     0.11675796              0 
22962896       50    0.099271199      1251.7892 
Loop time of 1251.79 on 40 procs for 123456 steps with 50 atoms, finish time Fri Jan  6 22:30:27 2023


Pair  time (%) = 0.215496 (0.0172151)
Neigh time (%) = 0.60202 (0.0480927)
Comm  time (%) = 1.32993 (0.106242)
Outpt time (%) = 0.000331154 (2.64544e-05)
Other time (%) = 1249.64 (99.8284)

Nlocal:    1.25 ave 18 max 0 min
Histogram: 34 3 1 0 0 0 0 0 1 1
Nghost:    0.55 ave 8 max 0 min
Histogram: 33 2 2 0 0 2 0 0 0 1
Neighs:    0.025 ave 1 max 0 min
Histogram: 39 0 0 0 0 0 0 0 0 1

Total # of neighbors = 1
Ave neighs/atom = 0.02
Neighbor list builds = 3223
Dangerous builds = 0
write_dump all custom dump.atom_info_ac_* id type x y z radius vx vy vz density #
run 123456
Setting up run at Fri Jan  6 22:30:27 2023

Memory usage per processor = 958.583 Mbytes
    Step    Atoms         KinEng            CPU 
22962896       50    0.099271199              0 
23086352       50     0.11024081      1242.9743 
Loop time of 1242.97 on 40 procs for 123456 steps with 50 atoms, finish time Fri Jan  6 22:51:10 2023


Pair  time (%) = 0.216785 (0.0174408)
Neigh time (%) = 0.489655 (0.0393938)
Comm  time (%) = 1.12464 (0.0904801)
Outpt time (%) = 0.000695155 (5.59268e-05)
Other time (%) = 1241.14 (99.8526)

Nlocal:    1.25 ave 18 max 0 min
Histogram: 33 3 2 0 0 0 0 0 1 1
Nghost:    0.45 ave 7 max 0 min
Histogram: 34 2 1 0 1 1 0 0 0 1
Neighs:    0.025 ave 1 max 0 min
Histogram: 39 0 0 0 0 0 0 0 0 1

Total # of neighbors = 1
Ave neighs/atom = 0.02
Neighbor list builds = 2616
Dangerous builds = 0
write_dump all custom dump.atom_info_ac_* id type x y z radius vx vy vz density #
run 123456
Setting up run at Fri Jan  6 22:51:10 2023

Memory usage per processor = 958.583 Mbytes
    Step    Atoms         KinEng            CPU 
23086352       50     0.11024081              0 
23209808       49    0.094697269      1239.6925 
Loop time of 1239.69 on 40 procs for 123456 steps with 49 atoms, finish time Fri Jan  6 23:11:50 2023


Pair  time (%) = 0.216146 (0.0174354)
Neigh time (%) = 0.585867 (0.047259)
Comm  time (%) = 1.22138 (0.0985232)
Outpt time (%) = 0.000304725 (2.45807e-05)
Other time (%) = 1237.67 (99.8368)

Nlocal:    1.225 ave 18 max 0 min
Histogram: 35 1 2 0 0 0 0 0 1 1
Nghost:    0.45 ave 7 max 0 min
Histogram: 35 1 1 0 1 0 0 1 0 1
Neighs:    0 ave 0 max 0 min
Histogram: 40 0 0 0 0 0 0 0 0 0

Total # of neighbors = 0
Ave neighs/atom = 0
Neighbor list builds = 3175
Dangerous builds = 1
write_dump all custom dump.atom_info_ac_* id type x y z radius vx vy vz density #
run 123456
Setting up run at Fri Jan  6 23:11:50 2023

Memory usage per processor = 958.583 Mbytes
    Step    Atoms         KinEng            CPU 
23209808       49    0.094697269              0 
23333264       48    0.088248698      1238.3057 
Loop time of 1238.31 on 40 procs for 123456 steps with 48 atoms, finish time Fri Jan  6 23:32:28 2023


Pair  time (%) = 0.216233 (0.017462)
Neigh time (%) = 0.614997 (0.0496644)
Comm  time (%) = 1.36481 (0.110216)
Outpt time (%) = 0.000270818 (2.18701e-05)
Other time (%) = 1236.11 (99.8226)

Nlocal:    1.2 ave 18 max 0 min
Histogram: 34 2 2 0 0 0 0 0 1 1
Nghost:    0.475 ave 7 max 0 min
Histogram: 34 2 1 0 1 0 0 1 0 1
Neighs:    0 ave 0 max 0 min
Histogram: 40 0 0 0 0 0 0 0 0 0

Total # of neighbors = 0
Ave neighs/atom = 0
Neighbor list builds = 3325
Dangerous builds = 74
write_dump all custom dump.atom_info_ac_* id type x y z radius vx vy vz density #
run 123456
Setting up run at Fri Jan  6 23:32:28 2023

Memory usage per processor = 958.583 Mbytes
    Step    Atoms         KinEng            CPU 
23333264       48    0.088248698              0 
23456720       48     0.11072428      1236.3182 
Loop time of 1236.32 on 40 procs for 123456 steps with 48 atoms, finish time Fri Jan  6 23:53:05 2023


Pair  time (%) = 0.217854 (0.0176212)
Neigh time (%) = 0.608791 (0.0492422)
Comm  time (%) = 1.16313 (0.0940805)
Outpt time (%) = 0.000656054 (5.30651e-05)
Other time (%) = 1234.33 (99.839)

Nlocal:    1.2 ave 19 max 0 min
Histogram: 34 3 0 1 0 0 0 1 0 1
Nghost:    0.525 ave 8 max 0 min
Histogram: 34 2 0 2 0 0 1 0 0 1
Neighs:    0 ave 0 max 0 min
Histogram: 40 0 0 0 0 0 0 0 0 0

Total # of neighbors = 0
Ave neighs/atom = 0
Neighbor list builds = 3255
Dangerous builds = 0
write_dump all custom dump.atom_info_ac_* id type x y z radius vx vy vz density #
run 123456
Setting up run at Fri Jan  6 23:53:05 2023

Memory usage per processor = 958.583 Mbytes
    Step    Atoms         KinEng            CPU 
23456720       48     0.11072428              0 
23580176       48     0.10966992      1237.4471 
Loop time of 1237.45 on 40 procs for 123456 steps with 48 atoms, finish time Sat Jan  7 00:13:42 2023


Pair  time (%) = 0.216095 (0.0174629)
Neigh time (%) = 0.609617 (0.0492641)
Comm  time (%) = 1.3611 (0.109993)
Outpt time (%) = 0.000296848 (2.39887e-05)
Other time (%) = 1235.26 (99.8233)

Nlocal:    1.2 ave 19 max 0 min
Histogram: 36 0 1 0 1 0 0 1 0 1
Nghost:    0.5 ave 8 max 0 min
Histogram: 36 0 0 2 0 0 0 1 0 1
Neighs:    0 ave 0 max 0 min
Histogram: 40 0 0 0 0 0 0 0 0 0

Total # of neighbors = 0
Ave neighs/atom = 0
Neighbor list builds = 3256
Dangerous builds = 0
write_dump all custom dump.atom_info_ac_* id type x y z radius vx vy vz density #
run 123456
Setting up run at Sat Jan  7 00:13:42 2023

Memory usage per processor = 958.583 Mbytes
    Step    Atoms         KinEng            CPU 
23580176       48     0.10966992              0 
23703632       48     0.11248228      1237.5465 
Loop time of 1237.55 on 40 procs for 123456 steps with 48 atoms, finish time Sat Jan  7 00:34:20 2023


Pair  time (%) = 0.215561 (0.0174184)
Neigh time (%) = 0.612981 (0.0495319)
Comm  time (%) = 1.22057 (0.0986281)
Outpt time (%) = 0.000304915 (2.46386e-05)
Other time (%) = 1235.5 (99.8344)

Nlocal:    1.2 ave 19 max 0 min
Histogram: 34 2 2 0 0 0 0 1 0 1
Nghost:    0.575 ave 8 max 0 min
Histogram: 33 3 0 1 0 1 1 0 0 1
Neighs:    0 ave 0 max 0 min
Histogram: 40 0 0 0 0 0 0 0 0 0

Total # of neighbors = 0
Ave neighs/atom = 0
Neighbor list builds = 3279
Dangerous builds = 0
write_dump all custom dump.atom_info_ac_* id type x y z radius vx vy vz density #
run 123456
Setting up run at Sat Jan  7 00:34:20 2023

Memory usage per processor = 958.583 Mbytes
    Step    Atoms         KinEng            CPU 
23703632       48     0.11248228              0 
23827088       48     0.11394072       1237.414 
Loop time of 1237.41 on 40 procs for 123456 steps with 48 atoms, finish time Sat Jan  7 00:54:57 2023


Pair  time (%) = 0.217639 (0.0175882)
Neigh time (%) = 0.623281 (0.0503697)
Comm  time (%) = 1.32168 (0.10681)
Outpt time (%) = 0.000631462 (5.10308e-05)
Other time (%) = 1235.25 (99.8252)

Nlocal:    1.2 ave 19 max 0 min
Histogram: 34 3 0 1 0 0 0 1 0 1
Nghost:    0.575 ave 10 max 0 min
Histogram: 33 3 1 1 0 1 0 0 0 1
Neighs:    0 ave 0 max 0 min
Histogram: 40 0 0 0 0 0 0 0 0 0

Total # of neighbors = 0
Ave neighs/atom = 0
Neighbor list builds = 3335
Dangerous builds = 0
write_dump all custom dump.atom_info_ac_* id type x y z radius vx vy vz density #
run 123456
Setting up run at Sat Jan  7 00:54:57 2023

Memory usage per processor = 958.583 Mbytes
    Step    Atoms         KinEng            CPU 
23827088       48     0.11394072              0 
23950544       48     0.14347018      1237.7872 
Loop time of 1237.79 on 40 procs for 123456 steps with 48 atoms, finish time Sat Jan  7 01:15:35 2023


Pair  time (%) = 0.217509 (0.0175724)
Neigh time (%) = 0.636252 (0.0514024)
Comm  time (%) = 1.39656 (0.112827)
Outpt time (%) = 0.000327915 (2.6492e-05)
Other time (%) = 1235.54 (99.8182)

Nlocal:    1.2 ave 18 max 0 min
Histogram: 34 3 0 1 0 0 0 0 1 1
Nghost:    0.6 ave 9 max 0 min
Histogram: 33 3 1 0 1 0 1 0 0 1
Neighs:    0 ave 0 max 0 min
Histogram: 40 0 0 0 0 0 0 0 0 0

Total # of neighbors = 0
Ave neighs/atom = 0
Neighbor list builds = 3406
Dangerous builds = 0
write_dump all custom dump.atom_info_ac_* id type x y z radius vx vy vz density #
run 123456
Setting up run at Sat Jan  7 01:15:35 2023

Memory usage per processor = 958.583 Mbytes
    Step    Atoms         KinEng            CPU 
23950544       48     0.14347018              0 
24074000       48     0.14191665      1245.5973 
Loop time of 1245.6 on 40 procs for 123456 steps with 48 atoms, finish time Sat Jan  7 01:36:21 2023


Pair  time (%) = 0.216899 (0.0174133)
Neigh time (%) = 0.618248 (0.0496347)
Comm  time (%) = 1.2511 (0.100442)
Outpt time (%) = 5.00506e-05 (4.0182e-06)
Other time (%) = 1243.51 (99.8325)

Nlocal:    1.2 ave 18 max 0 min
Histogram: 34 2 2 0 0 0 0 0 1 1
Nghost:    0.5 ave 9 max 0 min
Histogram: 35 1 2 0 0 0 1 0 0 1
Neighs:    0 ave 0 max 0 min
Histogram: 40 0 0 0 0 0 0 0 0 0

Total # of neighbors = 0
Ave neighs/atom = 0
Neighbor list builds = 3307
Dangerous builds = 0
write_dump all custom dump.atom_info_ac_* id type x y z radius vx vy vz density #
run 123456
Setting up run at Sat Jan  7 01:36:21 2023

Memory usage per processor = 958.583 Mbytes
    Step    Atoms         KinEng            CPU 
24074000       48     0.14191665              0 
24197456       48     0.14286031      1234.5226 
Loop time of 1234.53 on 40 procs for 123456 steps with 48 atoms, finish time Sat Jan  7 01:56:55 2023


Pair  time (%) = 0.216946 (0.0175732)
Neigh time (%) = 0.646945 (0.0524042)
Comm  time (%) = 1.4976 (0.12131)
Outpt time (%) = 0.000628037 (5.08726e-05)
Other time (%) = 1232.17 (99.8087)

Nlocal:    1.2 ave 18 max 0 min
Histogram: 35 1 0 2 0 0 0 0 1 1
Nghost:    0.625 ave 9 max 0 min
Histogram: 32 3 3 0 0 0 0 1 0 1
Neighs:    0 ave 0 max 0 min
Histogram: 40 0 0 0 0 0 0 0 0 0

Total # of neighbors = 0
Ave neighs/atom = 0
Neighbor list builds = 3459
Dangerous builds = 0
write_dump all custom dump.atom_info_ac_* id type x y z radius vx vy vz density #
run 123456
Setting up run at Sat Jan  7 01:56:55 2023

Memory usage per processor = 958.583 Mbytes
    Step    Atoms         KinEng            CPU 
24197456       48     0.14286031              0 
24320912       48     0.22250744      1244.2295 
Loop time of 1244.23 on 40 procs for 123456 steps with 48 atoms, finish time Sat Jan  7 02:17:40 2023


Pair  time (%) = 0.219646 (0.0176532)
Neigh time (%) = 0.637638 (0.0512476)
Comm  time (%) = 1.21072 (0.0973068)
Outpt time (%) = 0.0130115 (0.00104575)
Other time (%) = 1242.15 (99.8327)

Nlocal:    1.2 ave 18 max 0 min
Histogram: 34 3 0 1 0 0 0 0 1 1
Nghost:    0.525 ave 8 max 0 min
Histogram: 34 2 2 0 0 0 0 0 1 1
Neighs:    0.05 ave 1 max 0 min
Histogram: 38 0 0 0 0 0 0 0 0 2

Total # of neighbors = 2
Ave neighs/atom = 0.0416667
Neighbor list builds = 3410
Dangerous builds = 0
write_dump all custom dump.atom_info_ac_* id type x y z radius vx vy vz density #
run 123456
Setting up run at Sat Jan  7 02:17:40 2023

Memory usage per processor = 958.583 Mbytes
    Step    Atoms         KinEng            CPU 
24320912       48     0.22250744              0 
24444368       48     0.12687471      1245.1099 
Loop time of 1245.11 on 40 procs for 123456 steps with 48 atoms, finish time Sat Jan  7 02:38:25 2023


Pair  time (%) = 0.217049 (0.0174321)
Neigh time (%) = 0.592789 (0.0476094)
Comm  time (%) = 1.39827 (0.112301)
Outpt time (%) = 0.000311013 (2.49788e-05)
Other time (%) = 1242.9 (99.8226)

Nlocal:    1.2 ave 17 max 0 min
Histogram: 34 2 2 0 0 0 0 0 0 2
Nghost:    0.525 ave 8 max 0 min
Histogram: 35 1 1 1 0 0 0 0 1 1
Neighs:    0.05 ave 1 max 0 min
Histogram: 38 0 0 0 0 0 0 0 0 2

Total # of neighbors = 2
Ave neighs/atom = 0.0416667
Neighbor list builds = 3174
Dangerous builds = 0
write_dump all custom dump.atom_info_ac_* id type x y z radius vx vy vz density #
run 123456
Setting up run at Sat Jan  7 02:38:25 2023

Memory usage per processor = 958.583 Mbytes
    Step    Atoms         KinEng            CPU 
24444368       48     0.12687471              0 
24567824       48     0.12372502      1234.2992 
Loop time of 1234.3 on 40 procs for 123456 steps with 48 atoms, finish time Sat Jan  7 02:58:59 2023


Pair  time (%) = 0.216364 (0.0175293)
Neigh time (%) = 0.628558 (0.0509243)
Comm  time (%) = 1.18345 (0.0958805)
Outpt time (%) = 0.000657584 (5.32759e-05)
Other time (%) = 1232.27 (99.8356)

Nlocal:    1.2 ave 18 max 0 min
Histogram: 34 3 1 0 0 0 0 0 1 1
Nghost:    0.575 ave 8 max 0 min
Histogram: 34 2 0 2 0 0 0 0 1 1
Neighs:    0 ave 0 max 0 min
Histogram: 40 0 0 0 0 0 0 0 0 0

Total # of neighbors = 0
Ave neighs/atom = 0
Neighbor list builds = 3368
Dangerous builds = 0
write_dump all custom dump.atom_info_ac_* id type x y z radius vx vy vz density #
run 123456
Setting up run at Sat Jan  7 02:58:59 2023

Memory usage per processor = 958.583 Mbytes
    Step    Atoms         KinEng            CPU 
24567824       48     0.12372502              0 
24691280       48      0.1195391      1238.2903 
Loop time of 1238.29 on 40 procs for 123456 steps with 48 atoms, finish time Sat Jan  7 03:19:38 2023


Pair  time (%) = 0.218711 (0.0176623)
Neigh time (%) = 0.650821 (0.052558)
Comm  time (%) = 1.45081 (0.117162)
Outpt time (%) = 0.000303897 (2.45417e-05)
Other time (%) = 1235.97 (99.8126)

Nlocal:    1.2 ave 18 max 0 min
Histogram: 34 2 2 0 0 0 0 0 1 1
Nghost:    0.55 ave 8 max 0 min
Histogram: 36 0 0 2 0 0 0 0 0 2
Neighs:    0.025 ave 1 max 0 min
Histogram: 39 0 0 0 0 0 0 0 0 1

Total # of neighbors = 1
Ave neighs/atom = 0.0208333
Neighbor list builds = 3488
Dangerous builds = 0
write_dump all custom dump.atom_info_ac_* id type x y z radius vx vy vz density #
run 78
Setting up run at Sat Jan  7 03:19:38 2023

Memory usage per processor = 958.583 Mbytes
    Step    Atoms         KinEng            CPU 
24691280       48      0.1195391              0 
24691358       48     0.11953828     0.75546459 
Loop time of 0.755476 on 40 procs for 78 steps with 48 atoms, finish time Sat Jan  7 03:19:39 2023


Pair  time (%) = 0.000140256 (0.0185652)
Neigh time (%) = 0.000370775 (0.0490783)
Comm  time (%) = 0.000561693 (0.0743496)
Outpt time (%) = 0.000262478 (0.0347434)
Other time (%) = 0.754141 (99.8233)

Nlocal:    1.2 ave 18 max 0 min
Histogram: 34 2 2 0 0 0 0 0 1 1
Nghost:    0.55 ave 8 max 0 min
Histogram: 36 0 0 2 0 0 0 0 0 2
Neighs:    0.025 ave 1 max 0 min
Histogram: 39 0 0 0 0 0 0 0 0 1

Total # of neighbors = 1
Ave neighs/atom = 0.0208333
Neighbor list builds = 2
Dangerous builds = 0
write_dump all custom dump.atom_info_ac_* id type x y z radius vx vy vz density #
