ITEM: TIMESTEP
16463842
ITEM: NUMBER OF ATOMS
1252
ITEM: BOX BOUNDS ff ff ff
-0.15 0.15
-0.15 0.15
-0.15 0.15
ITEM: ATOMS id type x y z radius vx vy vz density 
369 1 -0.00438639 -0.034406 -0.0686838 0.000175 -9.14986 -0.741474 0.603104 2650 
164 1 -0.00288632 -0.0244698 -0.0687637 0.000175 -8.69022 0.249145 0.370897 2650 
437 1 -0.000637884 -0.00361618 -0.0688208 0.000175 -7.99569 -0.337138 0.0731069 2650 
831 1 -0.00488489 -0.0016382 -0.0686505 0.000175 -7.32336 -0.00440789 0.516312 2650 
839 1 -0.00681639 -0.040514 -0.0676758 0.000984 -11.1207 0.273077 1.09485 2650 
819 1 -0.00403948 -0.0386755 -0.068208 0.000635 -10.5777 0.316976 0.620218 2650 
926 1 -0.0124242 -0.0365282 -0.0676916 0.000175 -9.2572 -0.604195 1.71725 2650 
954 1 -0.00875783 -0.0359081 -0.0682595 0.000175 -11.0537 1.17268 1.41449 2650 
464 1 -0.0146596 -0.0351426 -0.0672429 0.000175 -9.18534 -0.0776061 2.00634 2650 
6 1 -0.00160482 -0.0343413 -0.0683418 0.000635 -9.29662 -0.376738 0.2249 2650 
282 1 -0.00175297 -0.0308128 -0.0683443 0.000635 -9.54075 -0.012463 0.234992 2650 
737 1 -0.00971191 -0.0152694 -0.0682522 6.3e-05 -6.74197 -0.622708 0.968231 2650 
724 1 -0.0093512 -0.0111225 -0.0681888 0.000175 -6.68002 -0.217662 0.929134 2650 
229 1 -0.00893869 -0.00703029 -0.0682426 0.000175 -7.90014 0.94755 1.04295 2650 
245 1 -0.00635904 -0.0065075 -0.0680709 0.000635 -8.45411 0.0895078 0.794005 2650 
1307 1 -0.0158661 -0.0532095 -0.0665024 0.000635 -9.93361 0.332618 2.37057 2650 
1136 1 -0.0133388 -0.0500035 -0.0667015 0.000984 -9.80991 -0.0684717 1.96616 2650 
329 1 -0.0161818 -0.03162 -0.0668953 0.000175 -10.6216 0.50827 2.57322 2650 
693 1 -0.0161907 -0.029616 -0.0668927 0.000175 -10.4852 1.38621 2.5366 2650 
1303 1 -0.0134019 -0.0288562 -0.067039 0.000635 -8.55209 0.439931 1.71875 2650 
976 1 -0.014758 -0.0164664 -0.0667599 0.000635 -4.02778 -0.257813 0.880046 2650 
821 1 -0.0190767 -0.0120194 -0.0661329 0.000175 -5.58208 -0.212666 1.58057 2650 
166 1 -0.0233592 -0.0508524 -0.0647428 0.000175 -8.8623 -0.345608 3.19909 2650 
1213 1 -0.0217193 -0.0368115 -0.0648254 0.000635 -9.44685 0.0839025 3.16326 2650 
996 1 -0.0200827 -0.0295864 -0.065829 0.000175 -8.43489 0.411024 2.57012 2650 
536 1 -0.0200973 -0.0267576 -0.0658244 0.000175 -6.70686 0.207422 2.05225 2650 
1273 1 -0.021068 -0.0241308 -0.0650398 0.000635 -6.70697 0.414894 2.16839 2650 
997 1 -0.021497 -0.0164128 -0.0653864 0.000175 -7.82983 0.196887 2.57004 2650 
731 1 -0.0216184 -0.00779166 -0.0653433 0.000175 -6.47392 0.821781 2.15894 2650 
94 1 -0.0206404 -0.000737323 -0.0656565 0.000175 -6.71759 -0.0682724 2.09894 2650 
770 1 -0.0252778 -0.00516362 -0.0641351 6.3e-05 -8.11552 -0.0654956 3.20517 2650 
1251 1 -0.0278131 -0.0182877 -0.0629564 0.000175 -6.17669 -0.282477 2.72517 2650 
1041 1 -0.028703 -0.0228029 -0.06205 0.000635 -7.68007 -0.0668019 3.58235 2650 
431 1 -0.0301348 -0.00935126 -0.0618774 0.000175 -7.20878 -0.335321 3.49423 2650 
935 1 -0.0345646 -0.00671998 -0.0596447 6.3e-05 -5.54859 -0.498169 3.21857 2650 
161 1 -0.0364465 -0.0136617 -0.0583174 0.000175 -6.95104 0.353964 4.31282 2650 
525 1 -0.0366382 -0.00810266 -0.0582185 0.000175 -7.44058 0.107828 4.65162 2650 
709 1 -0.0355216 -0.00813568 -0.0583923 0.000635 -7.70191 -0.117968 4.65887 2650 
1133 1 -0.0374546 -0.00130256 -0.0578703 6.3e-05 -5.77131 -0.0536971 3.75238 2650 
333 1 -0.0379506 -0.0113655 -0.0573478 0.000175 -7.73012 -0.661659 5.13621 2650 
262 1 -0.0394606 -0.000177343 -0.0563886 0.000175 -6.24233 0.0269907 4.37231 2650 
955 1 -0.0391734 -0.000174968 -0.0565891 0.000175 -6.27093 0.00254713 4.32422 2650 
982 1 -0.0392515 -0.00159351 -0.0559727 0.000635 -5.66352 -0.189956 3.96805 2650 
1156 1 -0.0444538 -0.0428933 -0.0525374 0.000175 -6.03192 0.245364 5.08972 2650 
1019 1 -0.0464611 -0.0238011 -0.0507758 0.000175 -6.43853 -0.112399 5.88405 2650 
368 1 -0.0470987 -0.000711087 -0.0501842 0.000175 -5.57525 0.0535432 5.21147 2650 
862 1 -0.0514395 -0.0217555 -0.0457291 0.000175 -5.80389 -0.215538 6.52856 2650 
496 1 -0.0515653 -0.0142762 -0.0455909 0.000175 -5.89932 0.0701339 6.68113 2650 
1084 1 -0.0507687 -0.00665354 -0.0464697 0.000175 -6.24485 0.291477 6.81016 2650 
851 1 -0.0531336 -0.0523979 -0.0430239 0.000635 -5.49306 -0.199404 6.73387 2650 
1001 1 -0.056171 -0.0183976 -0.0399648 6.3e-05 -5.05189 -0.401428 7.10056 2650 
134 1 -0.0580644 -0.060197 -0.0371588 6.3e-05 -5.42482 0.0981195 8.47755 2650 
768 1 -0.0581067 -0.0269218 -0.0370923 6.3e-05 -4.85795 0.0698599 7.60983 2650 
970 1 -0.0572751 -0.0611049 -0.0366947 0.000984 -5.7308 -0.0284227 8.94474 2650 
949 1 -0.0575665 -0.01327 -0.0368799 0.000635 -4.84336 -0.195762 7.54959 2650 
923 1 -0.0588687 -0.0216079 -0.0356546 0.000175 -3.87185 -0.188305 6.40575 2650 
1314 1 -0.0606877 -0.052734 -0.0314814 0.000635 -4.63051 0.170411 8.9288 2650 
1321 1 -0.0608671 -0.024687 -0.0320776 0.000175 -4.00443 -0.210828 7.58533 2650 
828 1 -0.0610706 -0.0158262 -0.0316635 0.000175 -3.607 -0.158475 7.013 2650 
375 1 -0.0607383 -0.057235 -0.0306218 0.000984 -4.64533 -0.0725366 9.3264 2650 
244 1 -0.0618799 -0.0563767 -0.0290684 0.000635 -4.44697 -0.118088 9.46739 2650 
473 1 -0.0622979 -0.00532259 -0.0294727 6.3e-05 -3.87874 0.0761287 8.17343 2650 
658 1 -0.0633097 -0.0167971 -0.0269678 0.000175 -3.42635 0.0308213 8.15225 2650 
617 1 -0.0637889 -0.0165748 -0.0245809 0.000635 -3.2819 -0.0091254 8.53785 2650 
657 1 -0.0651405 -0.0310386 -0.0222279 0.000175 -3.14638 -0.162783 9.21206 2650 
425 1 -0.0653382 -0.0121404 -0.0216338 0.000175 -2.56882 -0.339716 7.73698 2650 
8 1 -0.0652794 -0.0394615 -0.0203202 0.000635 -2.85618 0.0373584 9.16481 2650 
1009 1 -0.0659231 -0.0281197 -0.0181092 0.000635 -2.55491 0.0220735 9.36322 2650 
995 1 -0.0661915 -0.00853226 -0.0188633 0.000175 -2.26824 1.0279 7.8949 2650 
429 1 -0.0667876 -0.0543206 -0.0166238 0.000175 -2.01561 0.013405 8.07894 2650 
677 1 -0.0663172 -0.0278778 -0.0166132 0.000635 -2.36834 0.0158685 9.45361 2650 
196 1 -0.0666609 -0.0240285 -0.0171232 0.000175 -2.42886 0.0931206 9.45899 2650 
1158 1 -0.0665663 -0.000767718 -0.0174837 0.000175 -2.21501 -0.133897 8.43639 2650 
1294 1 -0.0668725 -0.0316094 -0.0162762 0.000175 -2.30245 -0.14441 9.46722 2650 
856 1 -0.0671637 -0.0340999 -0.0150189 0.000175 -2.07648 -0.403986 9.24195 2650 
95 1 -0.0674421 -0.00729167 -0.0137316 0.000175 -1.41998 0.241204 6.92483 2650 
1225 1 -0.00730894 -6.67718e-05 -0.013384 0.000175 0.00899803 -0.00139947 -0.0060161 2650 
794 1 -0.0676284 -0.0334487 -0.0127709 0.000175 -1.80498 0.421551 9.50975 2650 
736 1 -0.0678993 -0.02444 -0.011919 6.3e-05 -1.77433 0.636602 10.0986 2650 
859 1 -0.00987878 -0.000496474 -0.0125243 0.000175 0.00575666 -0.0120308 -0.00417212 2650 
226 1 -0.0678923 -0.0329331 -0.0112867 0.000175 -1.6543 0.329231 9.93782 2650 
455 1 -0.06747 -0.029158 -0.011039 0.000635 -1.63326 -0.00324432 9.99128 2650 
237 1 -0.0680774 -6.30169e-05 -0.0108515 6.3e-05 -1.2272 9.35036e-05 7.60254 2650 
344 1 -0.0672375 -0.0477805 -0.0102639 0.000984 -1.52062 0.0891251 10.014 2650 
961 1 -0.0681387 -0.0320408 -0.00969439 0.000175 -1.42925 0.227604 10.0308 2650 
346 1 -0.067862 -0.035378 -0.00825529 0.000635 -1.22123 0.0359331 9.99725 2650 
803 1 -0.000513 -0.00127754 -0.009445 6.3e-05 0 -0.011752 0 2650 
1172 1 -0.0108228 -0.00163716 -0.00753702 0.000635 0.00256161 -0.00497894 0.00642154 2650 
715 1 -0.00516146 -0.000364931 -0.00833494 0.000635 0.0144662 -0.00976217 0.00298157 2650 
800 1 -0.0684838 -0.0173827 -0.00684976 0.000175 -0.754276 0.13945 7.50266 2650 
826 1 -0.0685551 -0.000174994 -0.00608409 0.000175 -0.697423 0.000267577 7.82778 2650 
544 1 -0.00814114 -0.000139033 -0.00694594 0.000635 -0.00021558 -0.0115216 0.000272465 2650 
100 1 -0.0107876 -0.0027592 -0.0041026 6.3e-05 0.00410365 -0.00625385 0.00822095 2650 
899 1 -0.008738 -0.00301754 -0.003735 0.000175 0 -0.011752 0 2650 
453 1 -0.00905796 -0.000311426 -0.00459135 0.000635 0.000232782 -0.0093402 -0.00340192 2650 
788 1 -0.006237 -0.000746535 -0.003705 0.000175 0 -0.011752 0 2650 
1022 1 -0.002244 -0.000252535 -0.00401 0.000175 0 -0.011752 0 2650 
97 1 -0.0688036 -0.0119625 -0.00167788 0.000175 -0.211798 -0.589267 8.61207 2650 
409 1 -0.0130336 -0.0029961 -0.00159853 0.000984 -8.18237e-05 -0.00549564 0.0111944 2650 
963 1 -0.0129686 -0.0018424 -0.00212602 0.000175 0.000546335 -0.00553298 -0.00012844 2650 
1099 1 -0.0104402 -0.00141511 -0.00129231 6.3e-05 -0.00272829 -0.00559632 -0.00379832 2650 
1295 1 -0.002608 -0.00111854 -0.002004 0.000175 0 -0.011752 0 2650 
661 1 -0.0688159 -0.0349906 -0.000653588 0.000175 -0.114252 1.39201 11.1933 2650 
1140 1 -0.006618 -0.00316754 -0.000715 0.000635 0 -0.011752 0 2650 
317 1 -0.00409105 -0.00331759 -0.000284595 0.000635 -0.115006 -0.0187869 -0.00800044 2650 
710 1 -0.00953926 -0.00150845 -0.000866187 0.000635 0.000283036 -0.00357025 0.00229385 2650 
1315 1 -0.008679 -0.000892535 -0.000613 0.000175 0 -0.011752 0 2650 
287 1 -0.0683641 -0.0497123 0.000661155 0.000635 0.108372 0.0116479 11.2067 2650 
20 1 -0.0688076 -0.0435381 0.00150781 0.000175 0.25155 -0.00529514 11.3703 2650 
573 1 -0.0680183 -0.0385073 0.000757019 0.000984 0.0893038 -0.0429521 10.1118 2650 
503 1 -0.0688245 -0.00762491 0.00029572 0.000175 0.0289932 -0.153385 8.6227 2650 
265 1 -0.005736 -0.00299654 0.001012 0.000175 0 -0.011752 0 2650 
973 1 -0.0127854 -0.00120232 0.000429034 0.000635 -0.00219092 -0.00665478 -0.00131898 2650 
553 1 -0.00813692 -0.00208938 0.00108733 0.000635 0.00458428 -0.00700168 0.0053124 2650 
563 1 -0.0687768 -0.0460517 0.00256461 0.000175 0.379304 -0.222475 10.1796 2650 
584 1 -0.068346 -0.036178 0.00169394 0.000635 0.2495 -0.0575152 10.1374 2650 
247 1 -0.00784886 -0.00321272 0.00197603 0.000635 0.00439662 -0.00991008 0.00422797 2650 
406 1 -0.0688556 -0.0476733 0.00334373 6.3e-05 0.561013 0.100272 11.4937 2650 
1163 1 -0.0120225 -1.54178e-05 0.00330373 0.000175 0.0127811 -0.0081615 0.00602884 2650 
254 1 -0.0682464 -0.037877 0.0040545 0.000635 0.604296 -0.0582918 10.1594 2650 
1023 1 -0.0147562 -0.00153643 0.00454076 0.000175 0.00679859 -0.0104344 -0.00770012 2650 
47 1 -0.0054444 -0.00244785 0.00584311 0.000635 0.00953491 -0.00215823 0.0267824 2650 
71 1 -0.00142105 -0.00262144 0.00491245 0.000984 0.0168319 -0.0134775 -0.0394086 2650 
358 1 -0.001101 -0.00120154 0.005262 0.000175 0 -0.011752 0 2650 
890 1 -0.0684734 -0.0108007 0.00695747 0.000175 0.368794 -0.40891 3.95725 2650 
704 1 -0.0686325 -0.00670487 0.00647002 6.3e-05 1.09961 -1.3236 11.7466 2650 
1 1 -0.0676065 -0.00637272 0.0075018 0.000984 1.03996 -0.0144617 9.78909 2650 
89 1 -0.00030171 -0.00173143 0.00843282 0.000175 -0.000422946 -0.00475265 -0.00205368 2650 
668 1 -0.0679848 -0.0372837 0.0107163 0.000175 1.53649 0.0806594 9.75911 2650 
351 1 -0.0676311 -0.0341755 0.0100034 0.000635 1.47153 0.029809 9.8264 2650 
184 1 -0.0125709 -0.00220056 0.00978989 0.000635 -0.00336082 -0.0109243 -0.00646554 2650 
363 1 -0.0681029 -0.00101829 0.00993794 0.000175 1.06296 0.0107797 7.29503 2650 
334 1 -0.000106756 -0.000838012 0.0101259 0.000175 -0.0172715 -0.0103327 -0.0114049 2650 
3 1 -0.0670541 -0.0312756 0.0114343 0.000984 1.71197 -0.00230769 9.90285 2650 
1034 1 -0.067962 -0.015185 0.0115767 6.3e-05 0.942379 0.759676 5.63997 2650 
1086 1 -0.0679052 -0.0129517 0.0112369 0.000175 1.6587 -0.358883 10.0226 2650 
307 1 -0.0668116 -0.0618117 0.0127769 0.000984 1.92827 -0.00540069 10.2523 2650 
1174 1 -0.0670822 -0.0316703 0.0131933 0.000635 1.9429 -0.00359075 9.90161 2650 
1175 1 -0.000476662 -0.00128711 0.0131359 0.000635 0.0212197 -0.00524299 0.0046981 2650 
578 1 -0.0668022 -0.0620026 0.0145459 0.000635 2.23473 0.0119658 10.266 2650 
1024 1 -0.0673223 -0.0389896 0.0143046 0.000175 1.88186 0.761947 8.8719 2650 
1121 1 -0.007886 -0.00231854 0.014114 0.000175 0 -0.011752 0 2650 
1002 1 -0.00413718 -0.00217205 0.0143017 0.000984 0.00776503 -0.0120343 0.00551582 2650 
339 1 -0.0674819 -8.9875e-05 0.0140848 6.3e-05 1.54544 -0.0158925 7.41119 2650 
320 1 -0.00133394 -0.00104878 0.0145851 0.000635 0.000913649 -0.0131605 0.00259196 2650 
651 1 -0.0664784 -0.0617725 0.0159577 0.000635 2.46034 -0.0186142 10.2489 2650 
647 1 -0.0662536 -0.0349361 0.0168662 0.000635 2.46166 0.0292235 9.66284 2650 
753 1 -0.0664014 -0.0333349 0.0162736 0.000635 2.37731 0.00876814 9.69039 2650 
132 1 -0.00560791 -0.0037753 0.0156529 0.000175 0.00341842 -0.609782 -0.0350097 2650 
270 1 -0.00200719 -8.03012e-05 0.0157404 6.3e-05 0.0173539 -0.0153272 -0.0113925 2650 
560 1 -0.0665175 -0.0324491 0.0176695 0.000175 2.61606 0.125324 9.85035 2650 
365 1 -0.0664725 -0.0327534 0.0178369 0.000175 2.64189 0.125198 9.84155 2650 
195 1 -0.0657343 -0.0204618 0.0203989 0.000175 1.57948 -0.56589 5.14965 2650 
520 1 -0.0644201 -0.0288294 0.0228899 0.000635 3.27705 -0.330699 9.21982 2650 
1216 1 -0.0647902 -0.029476 0.0232156 0.000175 3.32137 -0.34624 9.26643 2650 
671 1 -0.0648053 -0.00353107 0.0235019 6.3e-05 3.20432 1.4253 8.84901 2650 
968 1 -0.0615694 -0.00444765 0.0233266 6.3e-05 0.410788 -0.102583 3.0742 2650 
314 1 -0.0630399 -0.0319538 0.0264596 0.000635 3.81771 0.000550174 9.10317 2650 
669 1 -0.0630912 -0.00115867 0.0277793 6.3e-05 3.77575 0.0358644 8.59218 2650 
909 1 -0.0619078 -0.0482123 0.0289981 0.000635 4.19305 -0.0629678 8.90582 2650 
1120 1 -0.0625191 -0.0227721 0.0287685 0.000175 3.19347 0.129159 6.97871 2650 
901 1 -0.0565829 -0.00418874 0.0287392 6.3e-05 -8.72453 -0.105111 4.43477 2650 
324 1 -0.0619815 -0.00657605 0.0298873 0.000175 3.66508 0.0840958 7.69926 2650 
168 1 -0.0621132 -0.00524605 0.0298827 6.3e-05 3.50188 -0.117583 7.17824 2650 
646 1 -0.0618101 -0.00111504 0.0292137 0.000635 3.28468 -0.143566 6.91035 2650 
870 1 -0.060041 -0.035154 0.0319574 0.000984 4.76708 -0.0669337 8.97055 2650 
531 1 -0.0610274 -0.0162469 0.0317158 0.000175 4.13611 0.186565 7.96381 2650 
942 1 -0.0597539 -0.0335858 0.0332031 0.000635 4.93228 0.0351742 8.8687 2650 
312 1 -0.0591619 -0.0376849 0.0342636 0.000635 5.12037 -0.0437678 8.83628 2650 
72 1 -0.0589965 -0.00717483 0.0338565 0.000984 4.48456 -0.299971 7.82535 2650 
402 1 -0.0640553 -0.0309892 0.0354017 0.000175 1.61581 0.0105721 10.462 2650 
597 1 -0.0588796 -0.0273976 0.0356354 0.000175 3.22627 -1.65624 5.33418 2650 
820 1 -0.0589446 -0.00236839 0.0355305 0.000175 3.4789 -0.0664043 5.74897 2650 
787 1 -0.0573771 -0.0236821 0.0380074 0.000175 1.85594 -0.929945 2.78439 2650 
232 1 -0.0570725 -0.00255025 0.0384648 0.000175 5.47327 0.111739 8.1141 2650 
659 1 -0.0566052 -0.0402686 0.039151 0.000175 5.11477 0.227003 7.40613 2650 
294 1 -0.0562014 -0.0154011 0.0397299 0.000175 4.87779 0.146547 6.89677 2650 
1228 1 -0.0550658 -0.02535 0.0412874 0.000175 5.70838 -1.14289 7.61374 2650 
188 1 -0.0548488 -0.0147262 0.0415791 0.000175 5.93319 -0.0279069 7.82964 2650 
1015 1 -0.0526483 -0.0235422 0.0436156 0.000635 5.83181 -0.0873922 7.03491 2650 
9 1 -0.0511997 -0.0472348 0.0453132 0.000635 6.555 -0.061737 7.43047 2650 
628 1 -0.0499718 -0.0254218 0.0473249 0.000175 6.61197 0.00605589 6.97999 2650 
601 1 -0.0492778 -0.00850469 0.0480494 0.000175 5.4449 0.312246 5.57208 2650 
74 1 -0.048132 -0.04169 0.0485577 0.000635 6.89381 0.0308415 6.81388 2650 
898 1 -0.0484707 -0.0252642 0.0488594 0.000175 6.45635 -0.390435 6.41134 2650 
1154 1 -0.0481516 -0.000275888 0.0491751 0.000175 2.66762 -0.0488303 2.59476 2650 
1258 1 -0.0470576 -0.0421503 0.0502285 0.000175 7.2558 0.0922459 6.80236 2650 
582 1 -0.0461382 -0.014093 0.0504518 0.000635 5.63186 0.00426993 5.17788 2650 
230 1 -0.0457165 -0.00633988 0.0506097 0.000175 4.27235 -0.203279 -0.255538 2650 
756 1 -0.0392387 -0.0207488 0.0564681 0.000175 8.11439 -0.18093 5.66722 2650 
857 1 -0.0407162 -0.0120633 0.0554733 0.000175 7.83065 -0.0107133 5.72235 2650 
99 1 -0.0385572 -0.0413276 0.0570102 0.000175 8.03293 0.117613 5.43925 2650 
362 1 -0.0380178 -0.0299397 0.0573714 0.000175 7.84679 -0.532139 5.20489 2650 
834 1 -0.0374915 -0.0262162 0.0578333 6.3e-05 6.19738 -0.388765 4.04015 2650 
889 1 -0.0368309 -0.00161032 0.0581391 0.000175 5.19301 0.529781 3.34994 2650 
514 1 -0.030963 -0.0352837 0.0609464 0.000635 8.82879 0.0468682 4.48171 2650 
1077 1 -0.0288612 -0.0358029 0.0619614 0.000635 9.00441 0.0901994 4.19724 2650 
86 1 -0.0265924 -0.0124115 0.0634819 0.000175 6.02705 0.0897241 2.52176 2650 
91 1 -0.0272916 -0.00155826 0.0631821 0.000175 7.2956 0.00316616 3.14258 2650 
1062 1 -0.0254874 -0.01511 0.0639352 0.000175 7.22982 0.275982 2.89353 2650 
23 1 -0.0258255 -0.000270916 0.0637957 0.000175 6.08729 -0.0215378 2.47197 2650 
11 1 -0.0196198 -0.0374497 0.0654889 0.000635 9.62245 0.0765402 2.88312 2650 
545 1 -0.0211192 -0.0232971 0.0650251 0.000635 9.50986 -0.493141 3.0865 2650 
1211 1 -0.0215129 -0.0115703 0.0648979 0.000635 8.06118 0.0851902 2.63227 2650 
591 1 -0.0208376 -0.0104205 0.065598 0.000175 8.12896 0.229826 2.58295 2650 
933 1 -0.0231984 -0.000403555 0.0649158 6.3e-05 6.46318 -0.0433957 2.32817 2650 
672 1 -0.012993 -0.035742 0.0667667 0.000984 9.89555 -0.0523206 1.90418 2650 
1200 1 -0.0135957 -0.0336211 0.0666483 0.000984 9.91024 -0.0574525 2.03012 2650 
782 1 -0.0167531 -0.0312059 0.0662844 0.000635 9.88464 0.0873927 2.50398 2650 
1253 1 -0.015671 -0.031972 0.0670171 0.000175 9.91486 -0.0265244 2.32325 2650 
813 1 -0.0146784 -0.0311481 0.0667758 0.000635 9.82703 0.029022 2.16664 2650 
157 1 -0.0165015 -0.0305044 0.0668171 0.000175 9.9053 -0.0399596 2.44706 2650 
541 1 -0.0131815 -0.0305084 0.0667318 0.000984 9.88636 -0.0711997 1.95053 2650 
1036 1 -0.0106656 -0.0306044 0.0671783 0.000984 10.0007 -6.02447e-06 1.5876 2650 
1007 1 -0.0123111 -0.0282901 0.0672481 0.000635 9.89699 0.0292831 1.81555 2650 
1151 1 -0.0165719 -0.0251155 0.0667998 0.000175 9.807 -0.182715 2.4341 2650 
129 1 -0.0181169 -0.014538 0.0664024 0.000175 8.67709 0.166488 2.36419 2650 
802 1 -0.0187745 -0.00841566 0.0663324 6.3e-05 7.05406 0.322213 1.99238 2650 
1079 1 -0.00920581 -0.0424597 0.067747 0.000635 9.86385 0.0153261 1.34105 2650 
82 1 -0.0118844 -0.0371576 0.0673269 0.000635 9.94395 -0.150788 1.7716 2650 
781 1 -0.0122507 -0.0326509 0.0672608 0.000635 9.96619 0.142967 1.80794 2650 
1184 1 -0.0109232 -0.0316535 0.0679526 0.000175 10.2098 0.0255044 1.64158 2650 
4 1 -0.00854149 -0.0303036 0.0674828 0.000984 10.0743 0.0245376 1.28027 2650 
183 1 -0.0109627 -0.0279549 0.067482 0.000635 9.94465 0.0342166 1.61568 2650 
529 1 -0.0108576 -0.0163827 0.0679668 0.000175 8.36254 -0.0794893 1.32767 2650 
699 1 -0.012382 -0.0146763 0.0677054 0.000175 9.54932 0.431585 1.74644 2650 
292 1 -0.00950672 -0.0144102 0.0681679 0.000175 8.36808 -0.331004 1.17038 2650 
122 1 -0.0130624 -0.0127614 0.0675772 0.000175 7.91505 -0.122351 1.5316 2650 
49 1 -0.00415555 -0.00469463 0.0682399 0.000635 4.75984 0.234408 0.295519 2650 
760 1 -0.00458894 -0.0300325 0.0686721 0.000175 10.7426 0.000100375 0.717981 2650 
291 1 -0.00486432 -0.0177767 0.0686531 0.000175 8.99232 0.265302 0.643504 2650 
604 1 -0.00487286 -0.012188 0.0687647 6.3e-05 8.31961 -0.0236486 0.600422 2650 
392 1 -0.000478632 -0.0102068 0.0688233 0.000175 3.31048 -0.258647 -0.0233065 2650 
528 1 -0.00533319 -0.00612894 0.0686176 0.000175 4.78279 0.111981 0.362126 2650 
559 1 -0.00285124 -0.00258638 0.0687583 0.000175 7.5787 2.59334 0.35962 2650 
928 1 -0.00167218 -0.000846985 0.0688045 0.000175 7.38106 0.022016 0.153289 2650 
886 1 -0.0015613 0.00509644 -0.0163091 0.000175 0.0131091 0.000345535 0.0110574 2650 
235 1 -0.00583306 0.00677345 -0.0157122 6.3e-05 0.0411813 -0.00399278 -0.0201826 2650 
28 1 -0.00451394 0.0134703 -0.0160695 0.000175 -0.0272459 0.0097311 0.00506764 2650 
533 1 -0.00426479 0.0158667 -0.0160886 0.000175 0.000349448 0.0252305 0.00647027 2650 
218 1 -0.0033704 0.0158738 -0.0159643 0.000635 -0.0228741 0.016842 0.0051507 2650 
1050 1 -0.00328101 0.022093 -0.0156747 0.000635 0.00351509 0.0231581 -0.00477484 2650 
1107 1 -0.00093216 0.0285635 -0.0158646 0.000635 0.0229392 0.0117265 -0.0221527 2650 
313 1 -0.00169151 0.0313249 -0.0161757 0.000635 0.00162733 0.049032 0.00487317 2650 
462 1 -0.00111727 0.0334091 -0.0166655 0.000175 -0.0216472 0.0491019 0.00389064 2650 
253 1 -0.000825617 0.0417884 -0.0162326 0.000635 -0.0467906 0.0472057 -0.00196319 2650 
474 1 -0.00443959 0.00699753 -0.0147332 0.000984 0.000508354 0.00411946 0.000909222 2650 
1035 1 -0.00142464 0.00990495 -0.0149013 0.000984 -0.0199272 0.0106272 0.00560861 2650 
117 1 -0.00515099 0.0112539 -0.0154154 0.000635 -7.54476e-05 0.0118966 0.000248919 2650 
348 1 -0.00326178 0.0108275 -0.0146216 0.000635 0.00329026 0.007171 0.0035259 2650 
692 1 -0.00709321 0.0143234 -0.0148325 0.000175 0.0270948 0.0155398 -0.00270475 2650 
1139 1 -0.00298759 0.0149365 -0.0151966 0.000635 -0.0154676 0.0146764 0.000428257 2650 
17 1 -0.00366365 0.0168227 -0.0150756 0.000635 -0.00706314 0.0120003 0.0106248 2650 
691 1 -0.0027716 0.0225377 -0.0151921 0.000175 -0.00229697 0.0240085 0.00491048 2650 
784 1 -0.00362228 0.0269923 -0.0153131 0.000635 0.00502256 0.0258087 0.000935437 2650 
373 1 -0.0080437 0.0329451 -0.0145237 6.3e-05 -0.00267287 0.0367315 0.00271403 2650 
234 1 -0.00485293 0.0360973 -0.0154236 0.000175 -0.022292 0.0251753 0.0212013 2650 
730 1 -0.00546118 0.00067905 -0.0140958 0.000175 -0.00169859 0.0072546 0.00776203 2650 
85 1 -0.00801336 0.00319396 -0.0137793 0.000635 0.0102374 -0.00472031 -0.00283261 2650 
233 1 -0.000825282 0.00601844 -0.0133331 0.000175 -0.00999261 0.00211097 0.00356067 2650 
767 1 -0.00324645 0.00740699 -0.0141636 0.000175 0.00265158 0.0060159 0.00866435 2650 
556 1 -0.0080892 0.0111202 -0.0140282 0.000635 -0.00982372 0.00297092 0.0164358 2650 
487 1 -0.00822038 0.0135688 -0.0138539 0.000635 -0.0138069 0.0121665 0.0084272 2650 
147 1 -0.00300185 0.0141695 -0.0139459 0.000635 -0.041606 0.0268873 0.0204136 2650 
419 1 -0.00738807 0.0147695 -0.0132351 0.000635 -0.0126375 0.00703503 0.00279975 2650 
1189 1 -0.00730447 0.0166394 -0.0134339 0.000175 0.00774618 0.00643291 0.000792505 2650 
310 1 -0.00440217 0.0198428 -0.0133355 0.000984 0.00266882 0.0187035 0.00677149 2650 
872 1 -0.00752171 0.023133 -0.0141681 0.000984 -0.00120448 0.0192909 0.000553858 2650 
408 1 -0.00504919 0.0230418 -0.013942 0.000984 0.000190428 0.0210859 0.00181813 2650 
880 1 -0.00633727 0.0280176 -0.0141734 0.000635 -0.00363808 0.0252653 0.000397265 2650 
177 1 -0.00768888 0.0305773 -0.0140098 0.000635 0.00796068 0.0288977 -0.00357367 2650 
1073 1 -0.00380481 0.0357231 -0.0136404 0.000635 0.0138683 0.0321747 -4.51351e-05 2650 
216 1 -0.0029843 0.042574 -0.013839 0.000635 -0.00436402 0.0326152 0.0232366 2650 
315 1 -0.000814952 0.0575457 -0.014261 0.000635 0.00602022 0.0560438 0.0019191 2650 
1122 1 -0.00124469 0.0642321 -0.0133366 0.000175 0.00492764 0.086685 -0.000120932 2650 
190 1 -0.0103758 0.000557806 -0.0127426 0.000175 -0.0133369 -0.00490743 0.0225608 2650 
548 1 -0.00341282 0.00373171 -0.0124767 0.000635 -0.0002146 -0.00863946 0.00288669 2650 
650 1 -0.00243498 0.00456758 -0.0128633 0.000635 -0.00364445 0.00122385 -0.00642548 2650 
847 1 -0.00838692 0.00545229 -0.0123123 0.000635 -0.0202104 0.00466465 0.0194161 2650 
619 1 -0.00921636 0.00959955 -0.0124672 0.000635 -0.0262705 0.00818104 0.00770739 2650 
1243 1 -0.00669094 0.0144716 -0.0121137 0.000635 -0.00378642 0.00819919 0.00205932 2650 
824 1 -0.00657949 0.0217619 -0.0128631 0.000175 -0.000554017 0.0181768 0.00467615 2650 
1229 1 -0.00386593 0.0221249 -0.0125546 0.000175 -0.00842826 0.0293018 -0.040594 2650 
771 1 -0.00500073 0.0265866 -0.0123459 0.000984 -0.0123803 0.026909 0.00601443 2650 
428 1 -0.00830663 0.0277949 -0.0124064 0.000175 -0.000384293 0.0296681 0.00365645 2650 
837 1 -0.00286106 0.0317984 -0.012282 0.000984 0.0119565 0.0228367 0.0128419 2650 
620 1 -0.00943823 0.0475823 -0.0126899 0.000635 -0.029837 0.0545875 0.00274848 2650 
727 1 -0.011638 0.00116546 -0.011173 0.000175 0 -0.011752 0 2650 
57 1 -0.0125697 0.00358227 -0.011031 0.000175 2.21404e-05 -0.0114416 0.000120693 2650 
405 1 -0.009473 0.00483446 -0.011251 6.3e-05 0 -0.011752 0 2650 
508 1 -0.011249 0.0125036 -0.0112766 0.000984 -0.00503374 0.00860919 0.0241972 2650 
868 1 -0.00531829 0.0125449 -0.0116938 6.3e-05 -0.0121823 0.00153366 -0.000714128 2650 
148 1 -0.00301864 0.0204214 -0.0110684 0.000635 -0.010621 0.00133561 0.00951416 2650 
456 1 -0.00116472 0.0366167 -0.0117099 0.000635 -0.00195361 0.0272224 0.018189 2650 
492 1 -0.00688493 0.0369709 -0.0116482 0.000175 0.00664413 0.0336774 0.00376488 2650 
140 1 -0.00697765 0.0499006 -0.0117651 0.000984 -0.0166783 0.0529795 -0.00322927 2650 
272 1 -0.0131607 0.00116751 -0.0102307 6.3e-05 0.0121264 -0.00840789 -0.0230349 2650 
505 1 -0.002044 6.34647e-05 -0.010315 6.3e-05 0 -0.011752 0 2650 
472 1 -0.0119184 0.00284508 -0.010015 6.3e-05 0.00349548 -0.013624 0.00550079 2650 
571 1 -0.008585 0.00343846 -0.010244 6.3e-05 0 -0.011752 0 2650 
1128 1 -0.0132497 0.00572995 -0.0101855 0.000175 0.00174172 -0.00651813 0.00104709 2650 
1094 1 -0.010552 0.00786929 -0.0098789 0.000175 -0.0122088 -0.0145181 0.000761558 2650 
1065 1 -0.00907695 0.00791822 -0.0101503 6.3e-05 0.00512273 0.00268936 0.0073814 2650 
873 1 -0.0104857 0.00946934 -0.0106604 0.000635 0.000302041 0.00541683 -0.00449087 2650 
477 1 -0.00138836 0.0133289 -0.00970828 0.000984 0.031174 0.0252105 -0.0200417 2650 
612 1 -0.0116135 0.0168833 -0.00995027 0.000635 0.00774625 0.0151222 -0.0035658 2650 
595 1 -0.0133179 0.0212386 -0.0103449 0.000175 -0.00294127 0.00931181 0.0260596 2650 
1165 1 -0.00494256 0.0219849 -0.0107433 6.3e-05 6.36838e-05 0.0159872 0.00158631 2650 
79 1 -0.0117746 0.0246266 -0.0107003 0.000635 0.00716482 0.0270894 -0.00847219 2650 
1033 1 -0.0123858 0.0252898 -0.00982685 6.3e-05 0.00308371 0.0208705 0.00188406 2650 
1281 1 -0.00775501 0.0342518 -0.010064 0.000635 -0.0247605 0.0362846 4.79602e-05 2650 
974 1 -0.0111949 0.0466417 -0.0100669 0.000635 0.0418292 0.0622764 -0.0317915 2650 
761 1 -0.00876774 0.0603247 -0.0107209 0.000175 0.0492019 0.101889 -0.0638544 2650 
110 1 -0.0016171 9.62809e-05 -0.0091911 0.000635 -0.00495975 -0.0143248 0.00459198 2650 
1069 1 -0.00206118 0.00367757 -0.00957596 0.000984 0.00763976 0.00540033 0.00483171 2650 
804 1 -0.0114438 0.00597645 -0.00954215 0.000984 0.00161004 -0.00317369 -0.0012982 2650 
656 1 -0.0123125 0.00718454 -0.00920343 0.000175 -0.00781776 0.0192542 -0.0183127 2650 
1039 1 -0.00543179 0.0104405 -0.00930414 0.000635 -0.00330187 0.0116307 0.0185482 2650 
1310 1 -0.00271875 0.0108415 -0.00949343 0.000635 0.00614713 0.00857071 0.0180321 2650 
763 1 -0.0138866 0.0134204 -0.00912868 0.000175 0.00272096 0.0188537 0.00614428 2650 
426 1 -0.0114864 0.0138914 -0.0093334 0.000175 0.00148021 0.00708692 0.00695317 2650 
278 1 -0.00504987 0.016024 -0.00877605 0.000635 0.00466897 0.0152803 -0.00655302 2650 
1254 1 -0.0126387 0.0169635 -0.00850428 0.000175 -0.00435097 0.0101831 0.00442399 2650 
877 1 -0.00507943 0.017227 -0.00923828 0.000635 -0.0161702 0.0299503 0.0123846 2650 
478 1 -0.0134755 0.0187044 -0.00883117 0.000635 -0.00315066 0.0141016 0.00599264 2650 
63 1 -0.012991 0.0180839 -0.00840927 0.000175 -0.00387412 0.00704708 0.00374464 2650 
285 1 -0.0105797 0.0201546 -0.00855916 0.000635 0.00480346 0.0235148 0.00170148 2650 
1282 1 -0.0143844 0.0221271 -0.00854123 0.000175 -0.00476656 0.02373 0.00900488 2650 
481 1 -0.00109419 0.0241266 -0.00921988 0.000635 0.0044446 0.0189934 0.00521389 2650 
937 1 -0.011487 0.0267569 -0.00844974 0.000984 0.00486956 0.0276027 -0.000689759 2650 
153 1 -0.00787158 0.0331052 -0.00872589 0.000635 -0.0159974 0.0241994 -0.0103183 2650 
1169 1 -0.0129162 0.0353805 -0.00932019 0.000984 -0.00461599 0.0300567 0.005528 2650 
46 1 -0.0128479 0.0410893 -0.00952736 0.000635 0.0238296 0.0778959 0.0372206 2650 
396 1 -0.00186504 0.0473586 -0.00850643 0.000175 0.0204189 0.0329489 0.0363479 2650 
206 1 -0.00636864 0.0478181 -0.0085349 0.000984 0.008054 0.0518389 0.00967878 2650 
711 1 -0.00842301 0.0529379 -0.00929594 0.000635 -0.0200877 0.0700802 0.0228922 2650 
905 1 -0.0106293 0.0162096 -0.00779216 0.000984 0.00129983 0.00862276 0.0110891 2650 
874 1 -0.011903 0.0186977 -0.00832647 0.000635 0.0124045 0.0261858 -0.0132145 2650 
443 1 -0.0132362 0.0203572 -0.0082872 0.000984 -0.00146354 0.0144191 0.00916491 2650 
1279 1 -0.00765276 0.0258097 -0.00811524 0.000635 0.0154522 0.0281887 0.00370396 2650 
844 1 -0.00586148 0.0260888 -0.00828627 0.000635 -0.00346295 0.0246184 0.0115598 2650 
922 1 -0.00870626 0.0281848 -0.00821063 0.000175 0.0132207 0.0275161 -0.00230271 2650 
638 1 -0.00186721 0.0335743 -0.00814777 6.3e-05 -0.00545962 0.0379823 -0.00206336 2650 
268 1 -0.01027 0.0539858 -0.00743309 0.000175 0.0221207 0.0409811 0.0185735 2650 
1058 1 -0.00492084 0.07082 -0.00789204 0.000175 -0.0365522 0.0739302 -0.00937205 2650 
1059 1 -0.0113217 0.00102172 -0.00600493 0.000175 0.00295844 -0.000728134 0.00873615 2650 
664 1 -0.001508 0.00107846 -0.006884 0.000175 0 -0.011752 0 2650 
84 1 -0.000985565 0.0033582 -0.00643413 0.000635 -0.00741639 0.00703117 0.00668819 2650 
547 1 -0.0128528 0.0036228 -0.00620209 0.000635 0.0030808 0.00530955 -0.0110912 2650 
516 1 -0.0135152 0.00848941 -0.00662662 0.000635 0.0108534 -0.00227788 0.0108276 2650 
642 1 -0.014804 0.0128158 -0.0070186 0.000635 0.00430883 0.000946947 0.0137349 2650 
721 1 -0.0137798 0.0136414 -0.0063556 0.000635 -0.0256875 0.0125971 0.0194937 2650 
1292 1 -0.0148605 0.0209705 -0.00604496 0.000175 0.0133291 0.0213213 -0.0117562 2650 
1245 1 -0.00995517 0.021736 -0.00678649 0.000635 0.0100145 0.0217856 0.00565765 2650 
575 1 -0.00531966 0.0220712 -0.00707472 0.000984 -0.00508555 0.032196 0.0139216 2650 
217 1 -0.000162314 0.0246966 -0.00657369 0.000635 0.00560221 0.0259294 0.0150533 2650 
607 1 -0.00466463 0.0272413 -0.00677949 0.000984 -0.00543505 0.0393196 0.0150854 2650 
703 1 -0.00630333 0.0279961 -0.00677701 6.3e-05 0.0200155 0.0414481 0.0111229 2650 
614 1 -0.0140218 0.0291402 -0.0064947 0.000635 0.00304118 0.030021 -0.0298707 2650 
1003 1 -0.00727543 0.0303597 -0.00666542 0.000984 0.00812445 0.0232726 0.00952521 2650 
43 1 -0.0140244 0.0329262 -0.00639352 0.000635 -0.0100394 0.0382684 0.0138004 2650 
572 1 -0.00217807 0.0710959 -0.00672443 6.3e-05 0.00521187 0.0674686 0.0292983 2650 