ITEM: TIMESTEP
21403027
ITEM: NUMBER OF ATOMS
1220
ITEM: BOX BOUNDS ff ff ff
-0.15 0.15
-0.15 0.15
-0.15 0.15
ITEM: ATOMS id type x y z radius vx vy vz density 
1289 1 -0.0076856 -0.0278941 -0.0683939 0.000175 -9.20288 -0.87113 1.03914 2650 
247 1 -0.00735525 -0.0447707 -0.0679673 0.000635 -10.5956 0.250596 1.1458 2650 
1213 1 -0.012805 -0.0420304 -0.0671569 0.000635 -10.3258 0.0392983 1.97209 2650 
351 1 -0.00763074 -0.0393649 -0.0679236 0.000635 -11.1063 0.188755 1.25411 2650 
1024 1 -0.0102983 -0.0358128 -0.0680439 0.000175 -10.7826 0.54608 1.63508 2650 
753 1 -0.00757254 -0.0356978 -0.0679441 0.000635 -10.4134 0.100158 1.16173 2650 
507 1 -0.0107941 -0.0323266 -0.0671589 0.000984 -10.0545 0.0369794 1.6165 2650 
576 1 -0.0072626 -0.0331486 -0.0679763 0.000635 -10.0577 0.532149 1.07286 2650 
213 1 -0.00244974 -0.0322406 -0.0683225 0.000635 -10.18 -0.0346815 0.365916 2650 
1053 1 -0.0114319 -0.0280078 -0.0678685 0.000175 -9.68006 0.155978 1.63138 2650 
155 1 -0.00832907 -0.0236919 -0.06832 0.000175 -10.7426 0.136372 1.30949 2650 
1239 1 -0.00173354 -0.0220318 -0.0683441 0.000635 -8.24326 -0.0750647 0.250075 2650 
496 1 -0.0132158 -0.0148995 -0.0675484 0.000175 -8.3501 -0.0939904 1.6304 2650 
917 1 -0.00972994 -0.014392 -0.0676749 0.000635 -8.458 -0.023958 1.22734 2650 
919 1 -0.0118309 -0.00810595 -0.0678022 0.000175 -9.93434 -0.620147 1.73347 2650 
647 1 -0.0143471 -0.0409057 -0.0668478 0.000635 -10.3332 0.367151 2.21829 2650 
1031 1 -0.0169572 -0.0311448 -0.0667071 0.000175 -9.93098 -0.307658 2.53074 2650 
157 1 -0.0162826 -0.0300658 -0.0668706 0.000175 -9.66809 -0.0454189 2.34329 2650 
1062 1 -0.0166287 -0.0136559 -0.0667901 0.000175 -8.38741 0.162513 2.0847 2650 
839 1 -0.0170162 -0.046629 -0.0658644 0.000984 -10.3688 -0.0337048 2.67897 2650 
366 1 -0.0236099 -0.0391089 -0.0646501 0.000175 -9.46193 -0.366415 3.46691 2650 
875 1 -0.0196962 -0.0378694 -0.0654689 0.000635 -7.64422 -0.627763 2.29068 2650 
942 1 -0.0244758 -0.0319398 -0.0638359 0.000635 -9.67389 0.078801 3.70965 2650 
609 1 -0.0251358 -0.029796 -0.0635787 0.000635 -7.65631 -0.175444 3.04081 2650 
243 1 -0.0243512 -0.0276756 -0.0638827 0.000635 -9.34242 0.0954154 3.56329 2650 
796 1 -0.0277038 -0.0623054 -0.063003 0.000175 -6.18494 0.950962 2.73008 2650 
1166 1 -0.0269431 -9.08128e-05 -0.063453 6.3e-05 -7.50203 0.0145864 3.18068 2650 
898 1 -0.0299847 -0.031182 -0.06195 0.000175 -9.34018 -0.129221 4.52194 2650 
1007 1 -0.0310869 -0.0311464 -0.0608909 0.000635 -9.19098 -0.0338134 4.69517 2650 
934 1 -0.0335821 -0.0302816 -0.0602041 6.3e-05 -9.84867 0.361257 5.49534 2650 
815 1 -0.0320466 -0.030357 -0.0603916 0.000635 -9.10201 0.0423999 4.81658 2650 
1319 1 -0.0352334 -0.0344622 -0.0591069 0.000175 -8.29621 1.41019 4.92581 2650 
1016 1 -0.0332083 -0.0147913 -0.0597599 0.000635 -7.81681 0.427294 4.32121 2650 
416 1 -0.0371366 -0.0331517 -0.0573952 0.000635 -7.88496 -0.236042 5.10889 2650 
465 1 -0.037282 -0.0253162 -0.0578077 0.000175 -8.43996 -0.057566 5.43826 2650 
833 1 -0.0391776 -0.00116481 -0.056584 0.000175 -6.9423 -0.358031 4.79743 2650 
254 1 -0.0394584 -0.0391611 -0.0558244 0.000635 -8.58464 0.0121001 6.07185 2650 
591 1 -0.0398814 -0.018815 -0.0560639 0.000175 -6.71772 0.181919 4.89632 2650 
561 1 -0.0400618 -0.012859 -0.0559482 0.000175 -6.95187 0.302482 4.92678 2650 
1061 1 -0.0421516 -0.0493192 -0.0543954 0.000175 -7.54903 1.24094 5.8523 2650 
74 1 -0.0422027 -0.0446949 -0.0537864 0.000635 -8.50867 0.0309419 6.67365 2650 
1120 1 -0.0416347 -0.0230957 -0.0547948 0.000175 -7.73321 -0.372351 5.89554 2650 
688 1 -0.0412968 -0.0211251 -0.0544781 0.000635 -7.88039 0.293776 5.97592 2650 
3 1 -0.0421961 -0.039383 -0.0533489 0.000984 -8.27822 -0.0268957 6.54571 2650 
870 1 -0.0425169 -0.0374228 -0.0530921 0.000984 -8.43683 -0.0361105 6.75531 2650 
701 1 -0.043477 -0.0163296 -0.0533416 0.000175 -6.47107 1.04179 5.26813 2650 
514 1 -0.0443016 -0.0392369 -0.052059 0.000635 -7.98578 -0.0920905 6.7998 2650 
584 1 -0.0438748 -0.0368452 -0.0524261 0.000635 -8.30853 0.0373264 6.95324 2650 
158 1 -0.0455903 -0.0347557 -0.0515555 0.000175 -7.16943 -0.151866 6.3324 2650 
97 1 -0.0456507 -0.00656997 -0.0515002 0.000175 -6.57961 0.174304 5.80168 2650 
53 1 -0.046315 -0.0431562 -0.0509065 0.000175 -7.87914 0.436108 7.16728 2650 
1077 1 -0.0455594 -0.0394373 -0.050971 0.000635 -7.76529 -0.00788765 6.93858 2650 
563 1 -0.0460613 -0.0365268 -0.051137 0.000175 -7.93468 -0.0357845 7.14574 2650 
422 1 -0.0477375 -0.0398303 -0.0489434 0.000635 -7.15992 0.0427497 6.98155 2650 
551 1 -0.0489647 -0.0486801 -0.0477173 0.000635 -6.20993 -0.710595 6.43662 2650 
573 1 -0.0480797 -0.0418135 -0.0481216 0.000984 -7.65299 -0.298851 7.6618 2650 
431 1 -0.0492966 -0.0228918 -0.0480277 0.000175 -6.817 0.345772 6.99456 2650 
14 1 -0.0496087 -0.0465401 -0.0470505 0.000635 -6.1475 -0.378281 6.47407 2650 
553 1 -0.0508354 -0.0329291 -0.0457131 0.000635 -6.44843 0.76452 7.20003 2650 
302 1 -0.0512398 -0.00999282 -0.0459539 0.000175 -5.46218 -0.156416 6.07952 2650 
183 1 -0.051631 -0.0324081 -0.0448127 0.000635 -6.62636 0.117891 7.64406 2650 
1057 1 -0.0527609 -0.0215633 -0.0441974 0.000175 -6.48606 0.547293 7.7403 2650 
821 1 -0.0527663 -0.0121321 -0.0441931 0.000175 -5.20053 0.513039 6.21641 2650 
802 1 -0.0519728 -0.0035365 -0.0452877 6.3e-05 -5.60672 0.0632088 6.43188 2650 
375 1 -0.0526242 -0.0559291 -0.0430987 0.000984 -6.72398 0.0533976 8.20828 2650 
881 1 -0.0524556 -0.0324291 -0.0438455 0.000635 -6.49787 0.128861 7.77502 2650 
782 1 -0.053275 -0.0324687 -0.0428469 0.000635 -6.3148 -0.0082353 7.86291 2650 
843 1 -0.0532149 -0.0307119 -0.0429213 0.000635 -6.37571 0.0424539 7.90121 2650 
244 1 -0.0533977 -0.0594495 -0.0426935 0.000635 -6.67322 -0.000450271 8.34652 2650 
178 1 -0.0549763 -0.0406067 -0.0406428 0.000635 -5.87845 -0.301435 7.97074 2650 
381 1 -0.0545669 -0.0383022 -0.041189 0.000635 -6.00724 -0.0432617 7.95686 2650 
627 1 -0.0553991 -0.0362774 -0.0408385 0.000175 -6.07072 0.0398853 8.23395 2650 
82 1 -0.0546236 -0.0363851 -0.0411116 0.000635 -6.00906 0.104357 8.00378 2650 
684 1 -0.0549504 -0.035171 -0.0406758 0.000635 -6.10341 -0.00366042 8.25377 2650 
4 1 -0.0540544 -0.0336124 -0.0412912 0.000984 -6.0566 -0.0293003 7.93191 2650 
188 1 -0.0553378 -0.016547 -0.0409253 0.000175 -5.38422 -0.0988203 7.27374 2650 
927 1 -0.0551203 -0.00395873 -0.0412142 0.000175 -5.08024 0.254117 6.77847 2650 
813 1 -0.0553543 -0.0367089 -0.0401248 0.000635 -5.87485 -0.00721578 8.05961 2650 
781 1 -0.0562234 -0.0338491 -0.0388963 0.000635 -5.74533 0.193018 8.27901 2650 
790 1 -0.0571371 -0.0289062 -0.0383684 0.000175 -5.67619 -0.0717942 8.44908 2650 
99 1 -0.0579604 -0.0390904 -0.0371139 0.000175 -6.05307 0.36119 9.45449 2650 
393 1 -0.057648 -0.0321746 -0.0375978 0.000175 -5.33888 0.037384 8.17378 2650 
983 1 -0.0569862 -0.0312402 -0.0377718 0.000635 -5.60952 -0.137354 8.48362 2650 
953 1 -0.0579756 -0.0172864 -0.0370889 0.000175 -4.80469 -0.111719 7.51008 2650 
970 1 -0.057284 -0.0614024 -0.0366813 0.000984 -5.76323 -0.00362092 9.00035 2650 
787 1 -0.0585182 -0.0363694 -0.0362271 0.000175 -5.18065 -0.299451 8.36438 2650 
1273 1 -0.0579255 -0.0160953 -0.0363103 0.000635 -4.65312 0.182913 7.46175 2650 
164 1 -0.0589855 -0.0323127 -0.035462 0.000175 -5.05675 -0.250788 8.41132 2650 
582 1 -0.0589148 -0.0141569 -0.0346856 0.000635 -4.61369 0.307054 7.82859 2650 
930 1 -0.0606008 -0.030343 -0.0326232 0.000175 -4.82156 0.356392 8.94981 2650 
1228 1 -0.0603695 -0.0132143 -0.0329871 0.000175 -4.33703 0.365454 7.88857 2650 
324 1 -0.0623476 -0.0019069 -0.0291433 0.000175 -3.75201 -0.0856925 8.02125 2650 
344 1 -0.0619091 -0.0484273 -0.0281851 0.000984 -4.51247 -0.00895443 9.89734 2650 
11 1 -0.0636441 -0.040067 -0.0249757 0.000635 -3.75126 -0.0428776 9.56902 2650 
1218 1 -0.0643179 -0.0217782 -0.0245001 0.000175 -3.39918 -0.154304 8.89132 2650 
407 1 -0.0643122 -0.0191072 -0.0247931 6.3e-05 -2.99946 -0.0872735 7.77548 2650 
1287 1 -0.0646244 -0.0148448 -0.0236762 0.000175 -3.15431 0.324632 8.58203 2650 
88 1 -0.0643274 -0.0131251 -0.0244648 0.000175 -3.20719 0.150074 8.54556 2650 
788 1 -0.0634726 -0.0116524 -0.0246633 0.000175 -3.87197 -0.473207 1.65683 2650 
1019 1 -0.0650426 -0.0243213 -0.0224943 0.000175 -3.1509 -0.169661 9.10006 2650 
704 1 -0.0657824 -0.0121405 -0.0206217 6.3e-05 -2.45284 -0.659087 7.82063 2650 
146 1 -0.0658963 -0.035354 -0.0182121 0.000635 -2.77026 -0.135118 10.022 2650 
541 1 -0.0660126 -0.0335604 -0.0164073 0.000984 -2.51121 -0.103958 10.1019 2650 
859 1 -0.0108686 -0.0044221 -0.0172467 0.000175 -0.989519 -0.231794 -1.57503 2650 
32 1 -0.0672264 -0.0473583 -0.0152645 6.3e-05 -2.62366 -0.510882 11.5572 2650 
733 1 -0.0668733 -0.0278951 -0.016271 0.000175 -2.40677 -0.245026 9.92446 2650 
862 1 -0.0671183 -0.0203705 -0.0152449 0.000175 -2.19188 -0.0492438 9.64099 2650 
194 1 -0.0673678 -0.0290042 -0.0140848 0.000175 -2.13771 0.257984 10.2199 2650 
1225 1 -0.00514941 -0.000402644 -0.0148279 0.000175 0.00899803 -0.00139947 -0.0060161 2650 
486 1 -0.0669935 -0.0346223 -0.0136252 0.000635 -2.03665 -0.0576866 10.0096 2650 
732 1 -0.0676327 -0.0139837 -0.0127749 0.000175 -1.90376 0.191508 10.0805 2650 
272 1 -0.00883361 -0.000844301 -0.0138704 6.3e-05 0.0190079 -0.00837836 -0.013861 2650 
1314 1 -0.067335 -0.0519859 -0.0117632 0.000635 -1.85857 0.0462754 10.6401 2650 
286 1 -0.0673475 -0.0345062 -0.0117585 0.000635 -1.74552 -0.213212 9.99143 2650 
1036 1 -0.0668458 -0.0331196 -0.0125889 0.000984 -1.89345 -0.0608879 10.0402 2650 
681 1 -0.067365 -0.0311021 -0.0116738 0.000635 -1.76652 0.00538534 10.1579 2650 
832 1 -0.0678078 -0.00178872 -0.0117843 0.000175 -1.5162 -0.292036 8.61676 2650 
13 1 -0.0674731 -0.0322814 -0.0110204 0.000635 -1.66695 -0.0349137 10.1992 2650 
727 1 -0.0125837 -0.00111081 -0.0108359 0.000175 -0.00193205 -0.00795479 0.00522827 2650 
643 1 -0.0677319 -0.0300727 -0.00929231 0.000635 -1.38213 -0.0224645 10.0753 2650 
505 1 -0.00476122 -0.00325325 -0.0101826 6.3e-05 -0.0239496 -0.0161258 0.00116704 2650 
1041 1 -0.0678908 -0.0295765 -0.00805928 0.000635 -1.20037 0.0602447 10.1047 2650 
897 1 -0.0683113 -0.0220919 -0.00839361 0.000175 -1.15449 -0.715925 9.54178 2650 
705 1 -0.00271216 -0.00144935 -0.00842511 0.000984 -0.0113043 0.01133 0.00621443 2650 
472 1 -0.0110795 -0.000424674 -0.00869483 6.3e-05 0.00349548 -0.013624 0.00550079 2650 
658 1 -0.06849 -0.0202412 -0.00678723 0.000175 -0.965287 0.215573 9.7574 2650 
250 1 -0.0679075 -0.00993625 -0.00792718 0.000635 -1.0231 0.0114594 8.98058 2650 
190 1 -0.0123037 -0.00111093 -0.00737341 0.000175 -0.00583967 -0.00779905 0.0222934 2650 
997 1 -0.0685535 -0.0303541 -0.00610813 0.000175 -0.873049 -0.2604 9.78762 2650 
1172 1 -0.0102622 -0.00268767 -0.00602935 0.000635 -0.000821961 0.00403721 0.00433003 2650 
544 1 -0.00819288 -0.00290421 -0.00688055 0.000635 -0.00021558 -0.0115216 0.000272465 2650 
715 1 -0.00348155 -0.00257643 -0.00641493 0.000635 -0.00274312 -0.00841436 0.0146927 2650 
1222 1 -0.00126795 -0.00325374 -0.00641509 0.000175 0.010204 -0.0168691 -0.00885829 2650 
798 1 -0.068581 -0.00237113 -0.00577879 0.000175 -0.60896 0.211931 7.24227 2650 
664 1 -0.001508 -0.00174201 -0.006884 0.000175 0 -0.011752 0 2650 
585 1 -0.0682269 -0.0286471 -0.00437611 0.000635 -0.676702 -0.0859983 10.0814 2650 
453 1 -0.00900209 -0.00255307 -0.00540781 0.000635 0.000232782 -0.0093402 -0.00340192 2650 
1022 1 -0.002244 -0.00307301 -0.00401 0.000175 0 -0.011752 0 2650 
646 1 -0.0683159 -0.00427473 -0.00264168 0.000635 -0.366373 -0.096823 9.46024 2650 
332 1 -0.0132714 -0.000649178 -0.00248624 0.000175 0.00148722 -0.0112402 -0.0101443 2650 
549 1 -0.00705428 -0.00055512 -0.00329895 0.000635 0.00611003 -0.00232019 -0.00464976 2650 
963 1 -0.0128375 -0.00317032 -0.00215685 0.000175 0.000546335 -0.00553298 -0.00012844 2650 
1099 1 -0.011095 -0.00275823 -0.00220391 6.3e-05 -0.00272829 -0.00559632 -0.00379832 2650 
672 1 -0.0680208 -0.0399836 0.000389878 0.000984 0.0619202 -0.0646775 10.8366 2650 
710 1 -0.00947133 -0.00236531 -0.000315663 0.000635 0.000283036 -0.00357025 0.00229385 2650 
863 1 -0.004917 -0.00140401 -0.000782 0.000175 0 -0.011752 0 2650 
307 1 -0.0680163 -0.061816 0.000882886 0.000984 0.138683 -7.00257e-08 10.684 2650 
973 1 -0.0133112 -0.00279947 0.000112479 0.000635 -0.00219092 -0.00665478 -0.00131898 2650 
219 1 -0.004445 -0.00256101 0.000972 0.000635 0 -0.011752 0 2650 
349 1 -0.0104424 -0.00103016 4.81685e-05 0.000635 0.00319422 -0.00591702 0.0027384 2650 
269 1 -0.0688906 -0.00875964 0.00249924 6.3e-05 0.293921 -0.239857 8.02242 2650 
578 1 -0.0682862 -0.0621096 0.00333676 0.000635 0.524114 -0.000493014 10.7256 2650 
1046 1 -0.0683023 -0.0209217 0.00294832 0.000635 0.420196 -0.064602 9.88513 2650 
827 1 -0.013 -0.00233901 0.002947 0.000175 0 -0.011752 0 2650 
1223 1 -0.004473 -0.00162201 0.002721 0.000175 0 -0.011752 0 2650 
822 1 -0.00528411 -6.42111e-05 0.00324322 0.000175 0.0123628 -0.0050197 -0.00717869 2650 
769 1 -0.003816 -0.000598015 0.003188 6.3e-05 0 -0.011752 0 2650 
651 1 -0.0682106 -0.0621035 0.00463234 0.000635 0.727436 0.00224605 10.7117 2650 
1163 1 -0.00895499 -0.00197418 0.00475066 0.000175 0.0127811 -0.0081615 0.00602884 2650 
66 1 -0.006818 -0.00199701 0.004587 6.3e-05 0 -0.011752 0 2650 
125 1 -0.00479734 -0.00155025 0.00454025 0.000175 0.013519 -0.0116254 0.0125053 2650 
735 1 -0.010003 -0.000942015 0.004837 6.3e-05 0 -0.011752 0 2650 
287 1 -0.0680258 -0.0546068 0.00681933 0.000635 1.07449 0.00115576 10.7187 2650 
44 1 -0.0679355 -0.0369776 0.00767213 0.000635 1.19044 -0.0206152 10.5402 2650 
40 1 -0.0680211 -0.035963 0.00686315 0.000635 1.07328 0.085251 10.662 2650 
503 1 -0.0684788 -0.0135599 0.00690907 0.000175 0.911978 0.283831 8.99646 2650 
902 1 -0.068588 -0.00658606 0.00692082 6.3e-05 0.7967 -0.422446 7.89991 2650 
267 1 -0.0106886 -0.00323441 0.00660231 0.000175 -0.00319896 -0.0140256 0.00661977 2650 
811 1 -0.00931049 -0.000853681 0.00645805 0.000635 0.00398724 -0.0079821 -0.00706606 2650 
266 1 -0.0683953 -0.0232237 0.00768367 0.000175 1.10921 -0.305726 9.86684 2650 
334 1 -0.00440893 -0.00332699 0.00766334 0.000175 -0.200241 -0.020893 0.308104 2650 
89 1 -0.000403217 -0.00287207 0.00793994 0.000175 -0.000422946 -0.00475265 -0.00205368 2650 
994 1 -0.003908 -0.00170101 0.007631 0.000175 0 -0.011752 0 2650 
817 1 -0.0675817 -0.0322581 0.0103324 0.000635 1.56342 -0.0424783 10.2362 2650 
1023 1 -0.0680237 -0.0256418 0.0104687 0.000175 1.56123 -1.45169 10.1466 2650 
663 1 -0.0680385 -0.0103583 0.010389 0.000175 1.23933 0.102182 8.07692 2650 
96 1 -0.0675187 -0.0241921 0.0133469 0.000175 0.829935 0.306294 4.28278 2650 
484 1 -0.0672055 -0.00503869 0.0125509 0.000635 1.47503 -0.0424048 8.03095 2650 
869 1 -0.0676 -0.00246822 0.0135036 6.3e-05 1.75488 0.278088 8.79512 2650 
47 1 -0.00315602 -0.00296583 0.0122709 0.000635 0.00953491 -0.00215823 0.0267824 2650 
7 1 -0.0667379 -0.0324749 0.0148358 0.000635 2.23658 -0.0446989 10.0654 2650 
766 1 -0.007586 -0.00234201 0.014412 0.000175 0 -0.011752 0 2650 
231 1 -0.00354765 -0.00216553 0.0145118 0.000175 0.00968074 -0.0183931 0.0360959 2650 
466 1 -0.003486 -0.00188601 0.016364 0.000175 0 -0.011752 0 2650 
724 1 -0.0666287 -0.0204011 0.0172598 0.000175 1.99795 0.458975 7.74374 2650 
527 1 -0.0666266 -0.00626224 0.0172558 0.000175 1.96386 -0.189621 7.60676 2650 
825 1 -0.0660066 -0.055889 0.0194927 0.000175 2.97447 0.399672 10.0766 2650 
1079 1 -0.0657869 -0.0440819 0.0186239 0.000635 3.01834 -0.0889611 10.6673 2650 
899 1 -0.0661713 -0.0125864 0.0189442 0.000175 2.32382 0.0320116 8.05868 2650 
528 1 -0.0658137 -0.00674825 0.0201344 0.000175 2.76814 -0.219302 9.05582 2650 
131 1 -0.0653463 -0.0180871 0.0216024 0.000175 2.57697 0.773235 7.79107 2650 
9 1 -0.064445 -0.0518336 0.022831 0.000635 3.60921 0.0296826 10.1856 2650 
949 1 -0.0646613 -0.00745415 0.0222079 0.000635 3.13277 0.192115 9.0999 2650 
831 1 -0.0651979 -0.00179981 0.0220431 0.000175 2.64108 -0.103944 7.78718 2650 
340 1 -0.0651249 -6.29978e-05 0.022605 6.3e-05 2.73125 2.11456e-05 7.89462 2650 
130 1 -0.0649502 -0.000174983 0.0227657 0.000175 2.76014 -0.00182135 7.87924 2650 
223 1 -0.0643785 -0.0216104 0.0243086 0.000175 2.96361 0.363663 7.85717 2650 
238 1 -0.0647427 -6.30906e-05 0.0236769 6.3e-05 2.8792 0.00373827 7.85768 2650 
864 1 -0.0640847 -0.0502056 0.0250839 0.000175 3.92416 0.5159 10.023 2650 
909 1 -0.0633522 -0.0483113 0.0257033 0.000635 4.08293 0.149516 10.0594 2650 
260 1 -0.0623043 -0.000455108 0.0292408 0.000175 3.50215 -0.0451831 7.47514 2650 
1178 1 -0.0602781 -0.011501 0.0321375 0.000635 4.39749 -0.0554876 8.17997 2650 
246 1 -0.0597868 -0.0605366 0.0331433 0.000635 5.12023 -0.0227865 9.23437 2650 
714 1 -0.0594707 -0.0396942 0.0337205 0.000635 5.18429 0.135806 9.13607 2650 
1154 1 -0.0600433 -0.0322525 0.0336267 0.000175 5.00065 -0.173226 8.91747 2650 
529 1 -0.060345 -0.0136202 0.0330248 0.000175 4.3432 0.156589 7.85939 2650 
697 1 -0.0600819 -0.00530864 0.0335561 0.000175 4.28281 0.00446088 7.63245 2650 
1297 1 -0.0601064 -0.000674713 0.0337441 6.3e-05 4.22948 -0.0773571 7.48491 2650 
83 1 -0.0586707 -0.0389799 0.0350976 0.000635 5.4351 0.0867027 9.08532 2650 
1200 1 -0.0581257 -0.0373223 0.0353299 0.000984 5.55431 0.0065823 9.13798 2650 
800 1 -0.0586702 -0.0212591 0.0359792 0.000175 4.83326 0.228515 7.88427 2650 
964 1 -0.0584953 -0.00818367 0.0362644 0.000175 4.73216 -0.00248813 7.6436 2650 
420 1 -0.0578315 -0.0418301 0.0364627 0.000635 5.73031 0.0805852 9.08819 2650 
622 1 -0.0576474 -0.0280313 0.0367532 0.000635 4.95481 0.0134288 7.81159 2650 
853 1 -0.0582252 -0.00733552 0.036696 0.000175 4.76319 0.270161 7.52942 2650 
621 1 -0.0569807 -0.0415644 0.0377794 0.000635 5.96943 0.0263726 9.00094 2650 
392 1 -0.0571511 -0.0134288 0.0383493 0.000175 4.79771 0.388825 7.13876 2650 
176 1 -0.0556553 -0.0310576 0.0397064 0.000635 5.96741 -0.00307798 8.40178 2650 
736 1 -0.0564654 -0.023662 0.0395468 6.3e-05 5.08301 -0.0351092 7.24475 2650 
228 1 -0.0546854 -0.0355128 0.0417883 0.000175 6.13134 -0.0879383 8.02596 2650 
699 1 -0.0544795 -0.0134623 0.0420625 0.000175 5.50393 -0.0794308 7.12384 2650 
737 1 -0.054186 -0.0491695 0.0426213 6.3e-05 5.46943 -0.61191 6.96515 2650 
717 1 -0.0531304 -0.0391265 0.0430291 0.000635 6.84795 -0.0011681 8.45983 2650 
617 1 -0.0521129 -0.0294 0.0442516 0.000635 6.35471 0.4277 7.5113 2650 
725 1 -0.0532458 -0.0139451 0.0436151 0.000175 5.6182 0.234673 6.86587 2650 
502 1 -0.0528087 -0.000174983 0.0441366 0.000175 5.71474 -0.000229952 6.8397 2650 
338 1 -0.0527758 -6.30183e-05 0.0443499 6.3e-05 5.74651 0.00472833 6.83256 2650 
1098 1 -0.0526647 -6.31168e-05 0.0444826 6.3e-05 5.76848 -0.00360846 6.80863 2650 
636 1 -0.0515761 -0.0427375 0.0457447 6.3e-05 6.19141 0.228328 6.97468 2650 
1027 1 -0.0515453 -0.026158 0.0456058 0.000175 5.80053 0.0909326 6.54571 2650 
1211 1 -0.0511435 -0.018607 0.0453747 0.000635 5.63786 0.25023 6.36432 2650 
1117 1 -0.0516762 -0.00017504 0.045458 0.000175 5.89861 0.000322613 6.70494 2650 
71 1 -0.0501688 -0.0213789 0.0459381 0.000984 5.91874 0.136273 6.42041 2650 
22 1 -0.0497041 -0.0383949 0.0476077 0.000175 7.6353 0.202793 7.97084 2650 
1082 1 -0.0494785 -0.0227616 0.0471824 0.000635 6.05276 0.026093 6.33629 2650 
320 1 -0.0484864 -0.0121188 0.0482048 0.000635 6.29284 -0.174973 6.33772 2650 
476 1 -0.0481413 -0.00723344 0.048056 0.000984 6.31501 0.0176664 6.3811 2650 
895 1 -0.0498925 -0.00233137 0.0474073 0.000175 6.21588 -0.146574 6.54175 2650 
100 1 -0.0492413 -6.30029e-05 0.0482441 6.3e-05 5.59805 0.000412618 5.70725 2650 
119 1 -0.047742 -0.03054 0.0489366 0.000635 7.30229 -0.0609221 7.12735 2650 
723 1 -0.0472662 -0.03758 0.0500278 0.000175 7.88401 -0.0884112 7.44869 2650 
127 1 -0.0469638 -0.0344332 0.0503101 0.000175 7.93611 0.181189 7.40838 2650 
1 1 -0.0466596 -0.013946 0.0494993 0.000984 6.53313 -0.0596082 6.13965 2650 
94 1 -0.0477842 -0.00973229 0.0495308 0.000175 6.46827 -0.17448 6.24499 2650 
726 1 -0.0463272 -0.0421185 0.0509019 0.000175 6.57825 -0.615908 5.99091 2650 
1086 1 -0.0458962 -0.00181515 0.0512856 0.000175 6.36975 0.0735974 5.68678 2650 
295 1 -0.0450371 -0.0355511 0.0520428 0.000175 8.13531 -0.0851829 7.03943 2650 
1286 1 -0.0445762 -0.0271981 0.0524369 0.000175 7.78969 0.054631 6.62439 2650 
1183 1 -0.0438499 -0.016713 0.0530318 0.000175 7.07849 0.314462 5.83157 2650 
653 1 -0.0372849 -0.0505468 0.0573058 0.000635 9.18328 -0.192677 5.9753 2650 
1241 1 -0.0373863 -0.0457268 0.0572397 0.000635 9.20307 -0.0511579 6.01085 2650 
803 1 -0.0359771 -0.0102739 0.0587421 6.3e-05 3.14839 -0.132098 1.6945 2650 
601 1 -0.0340639 -0.0217414 0.0598035 0.000175 7.94593 -0.232517 4.53474 2650 
397 1 -0.0351519 -0.00365849 0.0591632 0.000175 6.58361 0.209217 3.86984 2650 
110 1 -0.0343594 -0.00466984 0.0591057 0.000635 6.47734 -0.324846 3.76767 2650 
374 1 -0.0353107 -6.29978e-05 0.0592054 6.3e-05 7.71343 1.67516e-05 4.60731 2650 
1045 1 -0.0301672 -0.0398016 0.0613508 0.000635 9.64736 0.0289524 4.7438 2650 
1078 1 -0.0321092 -0.0223061 0.0603576 0.000635 8.16755 -0.441923 4.33665 2650 
86 1 -0.0325421 -0.00956053 0.0606454 0.000175 7.43965 0.189011 3.96835 2650 
854 1 -0.0319988 -0.00438924 0.0609325 0.000175 7.55426 -0.64192 3.96514 2650 
708 1 -0.029271 -0.0436034 0.0617754 0.000635 9.55775 0.105807 4.52954 2650 
70 1 -0.0274449 -0.041994 0.0622367 0.000984 9.84119 0.0543896 4.33787 2650 
205 1 -0.0275407 -0.0395112 0.0621944 0.000984 9.70562 -0.0102279 4.29635 2650 
1309 1 -0.0295649 -0.0386919 0.0616313 0.000635 9.58671 0.0518711 4.60004 2650 
318 1 -0.0282241 -0.0353334 0.0622615 0.000635 9.39668 0.0472998 4.25647 2650 
55 1 -0.0293941 -0.0143771 0.0622329 0.000175 8.21209 0.0604051 3.88096 2650 
196 1 -0.0284715 -0.0328222 0.0626598 0.000175 9.03737 -0.133723 4.1124 2650 
531 1 -0.0281246 -0.0161421 0.0628185 0.000175 9.351 -0.0618423 4.18624 2650 
132 1 -0.0262175 -0.000567991 0.0636354 0.000175 7.91277 -0.00775622 3.26735 2650 
1179 1 -0.0228342 -0.0389785 0.0644416 0.000635 9.81192 0.0282508 3.48585 2650 
693 1 -0.0247977 -0.0372025 0.0642012 0.000175 9.60348 0.443754 3.70809 2650 
921 1 -0.0245728 -0.0162027 0.0642921 0.000175 7.74334 0.136798 2.96585 2650 
1195 1 -0.0251849 -0.0131337 0.0640553 0.000175 8.52341 -0.189575 3.34307 2650 
598 1 -0.0258857 -0.00380865 0.0637709 0.000175 8.11315 0.330677 3.28567 2650 
116 1 -0.0174467 -0.0431229 0.0661079 0.000635 10.4746 -0.144218 2.76484 2650 
1112 1 -0.0179364 -0.0403542 0.0659755 0.000635 10.3263 -0.00309562 2.8073 2650 
454 1 -0.0194825 -0.0385434 0.0655334 0.000635 10.0332 0.0539432 2.98104 2650 
62 1 -0.0209393 -0.0363287 0.0655598 0.000175 9.76225 -0.0251411 3.11797 2650 
106 1 -0.0190872 -0.0204088 0.0652898 0.000984 8.78229 -0.103527 2.59896 2650 
427 1 -0.0228071 -0.0182168 0.0649399 0.000175 7.98821 -0.325766 2.81508 2650 
292 1 -0.0211279 -0.0182299 0.065506 0.000175 8.73038 0.496982 2.81558 2650 
170 1 -0.022272 -0.0109193 0.0652428 6.3e-05 8.58166 0.654041 2.93209 2650 
128 1 -0.0213657 -0.00886943 0.0654267 0.000175 8.71647 1.11068 2.84824 2650 
1301 1 -0.0135376 -0.0457087 0.0666662 0.000984 10.605 0.0933066 2.15609 2650 
536 1 -0.0178522 -0.0330836 0.0664686 0.000175 9.87378 0.20002 2.65142 2650 
1015 1 -0.0121933 -0.0239153 0.0672718 0.000635 9.31679 0.150907 1.68604 2650 
1171 1 -0.0131035 -0.0215991 0.067102 0.000635 8.97447 0.0938914 1.74458 2650 
463 1 -0.0185429 -0.0122384 0.0662846 0.000175 8.4969 0.343734 2.38326 2650 
567 1 -0.0190989 -0.000175099 0.0661217 0.000175 8.47195 -0.000615052 2.43964 2650 
401 1 -0.018811 -0.000357171 0.066204 0.000175 8.56397 0.129417 2.43045 2650 
1197 1 -0.018538 -6.29981e-05 0.0663968 6.3e-05 8.59251 6.21001e-06 2.39629 2650 
956 1 -0.0183179 -0.000174987 0.0663426 0.000175 8.59285 -0.000706496 2.37284 2650 
1329 1 -0.0181744 -6.29981e-05 0.0664978 6.3e-05 8.60667 5.64893e-08 2.36035 2650 
199 1 -0.0179166 -0.000174987 0.0664517 0.000175 8.62038 -0.000156044 2.32558 2650 
1264 1 -0.0177718 -6.30085e-05 0.0666061 6.3e-05 8.64401 1.35033e-05 2.30253 2650 
1081 1 -0.0112098 -0.0621223 0.0674415 0.000635 10.2261 0.0104073 1.70024 2650 
185 1 -0.00472053 -0.0494915 0.0682045 0.000635 11.0379 -0.000442403 0.763212 2650 
1029 1 -0.0100895 -0.045562 0.0680847 0.000175 10.3433 0.106002 1.53123 2650 
748 1 -0.0102289 -0.0394223 0.067599 0.000635 10.4125 -0.0538435 1.57834 2650 
1274 1 -0.0109561 -0.0362858 0.0674838 0.000635 10.3472 -0.0460848 1.68032 2650 
926 1 -0.00821412 -0.035171 0.0683328 0.000175 9.97685 -0.22083 1.19672 2650 
382 1 -0.00391564 -0.0350798 0.0682551 0.000635 10.5052 -0.0408538 0.602111 2650 
330 1 -0.00815494 -0.0342496 0.0683396 0.000175 10.1077 0.0222615 1.20637 2650 
212 1 -0.00773638 -0.032801 0.067928 0.000635 10.4517 0.0315338 1.19106 2650 
413 1 -0.0052834 -0.030601 0.0681629 0.000635 10.344 0.0326734 0.802092 2650 
1202 1 -0.00979035 -0.027848 0.0673125 0.000984 9.21562 -0.109643 1.33656 2650 
409 1 -0.00791382 -0.0269663 0.0675569 0.000984 9.23141 -0.0553965 1.08124 2650 
1315 1 -0.00973207 -0.0254055 0.0681332 0.000175 9.88269 -0.474722 1.41125 2650 
526 1 -0.0094454 -0.0251868 0.0681739 0.000175 9.71288 -0.157736 1.34398 2650 
957 1 -0.0118636 -0.0214709 0.0677968 0.000175 9.25504 0.131204 1.61975 2650 
976 1 -0.0118267 -0.020786 0.0673384 0.000635 9.04487 0.122685 1.55746 2650 
129 1 -0.0127204 -0.0124249 0.0676434 0.000175 9.1975 -0.108727 1.72284 2650 
72 1 -0.00881068 -0.0129509 0.0674491 0.000984 8.95852 -0.239178 1.13973 2650 
901 1 -0.0133987 -0.000519009 0.0676215 6.3e-05 9.33483 -0.214857 1.84775 2650 
372 1 -0.00874512 -6.30132e-05 0.0683797 6.3e-05 9.16232 0.00090161 1.16488 2650 
201 1 -0.00838029 -6.29983e-05 0.0684249 6.3e-05 9.1757 4.61741e-07 1.12613 2650 
124 1 -0.00497998 -0.0460819 0.0686443 0.000175 8.6905 -0.467584 0.634019 2650 
494 1 -0.00435303 -0.0329768 0.0686868 0.000175 3.47837 -0.778438 0.240737 2650 
966 1 -0.00046198 -0.0280155 0.0689351 6.3e-05 10.1124 0.135853 0.0650481 2650 
968 1 -0.00398533 -0.0134398 0.0688216 6.3e-05 8.79101 0.782562 0.498858 2650 
1121 1 -0.00674909 -0.0119872 0.0684946 0.000175 9.88034 0.562945 0.977369 2650 
1226 1 -0.00261568 -0.000980683 0.0687751 0.000175 8.60909 -0.174742 0.327005 2650 
1280 1 -0.000649514 0.0156254 -0.0160411 0.000635 -0.015877 0.0108318 0.000955379 2650 
519 1 -0.00127337 0.0271304 -0.016214 0.000635 -0.00423245 0.0131215 -0.000640458 2650 
1050 1 -0.00244766 0.0275426 -0.0157599 0.000635 -0.0029937 0.0239446 0.00421205 2650 
379 1 -0.00393245 0.0492534 -0.0158121 0.000635 -0.0208967 0.0399937 0.00434067 2650 
85 1 -0.00555639 0.00206109 -0.0144592 0.000635 0.0102374 -0.00472031 -0.00283261 2650 
650 1 -0.00330965 0.00486131 -0.0144054 0.000635 -0.00364445 0.00122385 -0.00642548 2650 
474 1 -0.00431758 0.0079862 -0.014515 0.000984 0.000508354 0.00411946 0.000909222 2650 
117 1 -0.0051691 0.0141091 -0.0153557 0.000635 -7.54476e-05 0.0118966 0.000248919 2650 
1139 1 -0.00652856 0.0185274 -0.0149443 0.000635 -0.0120222 0.0148274 0.00622205 2650 
1229 1 -0.00382473 0.0259971 -0.014479 0.000175 0.00130436 0.01197 0.0140457 2650 
784 1 -0.00241687 0.0331864 -0.0150886 0.000635 0.00502256 0.0258087 0.000935437 2650 
177 1 -0.00577832 0.0375128 -0.0148675 0.000635 0.00796068 0.0288977 -0.00357367 2650 
313 1 -0.00130095 0.0430925 -0.0150062 0.000635 0.00162733 0.049032 0.00487317 2650 
462 1 -0.00619544 0.045154 -0.0154476 0.000175 -0.0196611 0.0484316 0.0087078 2650 
1164 1 -0.00843685 0.0499834 -0.0144507 6.3e-05 0.0539313 0.0197205 -0.028871 2650 
1035 1 -0.00519309 0.0119227 -0.0137095 0.000984 -0.015303 0.00819758 0.00490507 2650 
348 1 -0.00624557 0.0145311 -0.0132012 0.000635 -0.0139167 0.0162117 0.00614382 2650 
692 1 -0.00471967 0.0142889 -0.014298 0.000175 0.000871279 -0.00836456 0.00481226 2650 
28 1 -0.0101022 0.0157169 -0.0132378 0.000175 -0.0205349 0.00914143 0.0153084 2650 
1189 1 -0.00544539 0.0181833 -0.0132437 0.000175 0.00774618 0.00643291 0.000792505 2650 
218 1 -0.00840755 0.0198012 -0.0139347 0.000635 -0.0179307 0.0155451 0.0135658 2650 
533 1 -0.00928202 0.0216281 -0.0138725 0.000175 -0.0208181 0.023876 0.010283 2650 
1212 1 -0.00189188 0.025196 -0.0137622 0.000635 -0.0113916 0.0144448 0.00529927 2650 
872 1 -0.00779336 0.0277584 -0.0140086 0.000984 -0.00106814 0.0192561 0.000761858 2650 
408 1 -0.00502206 0.0281152 -0.01351 0.000984 0.000102222 0.0211467 0.00179721 2650 
691 1 -0.00332288 0.0282997 -0.0140136 0.000175 -0.00229697 0.0240085 0.00491048 2650 
880 1 -0.00721041 0.0340813 -0.0140781 0.000635 -0.00363808 0.0252653 0.000397265 2650 
373 1 -0.00868519 0.0417607 -0.0138724 6.3e-05 -0.00267287 0.0367315 0.00271403 2650 
1073 1 -0.000476413 0.043445 -0.0136512 0.000635 0.0138683 0.0321747 -4.51351e-05 2650 
730 1 -0.00586884 0.00242015 -0.0122329 0.000175 -0.00169859 0.0072546 0.00776203 2650 
233 1 -0.00322351 0.00652508 -0.0124785 0.000175 -0.00999261 0.00211097 0.00356067 2650 
640 1 -0.00818368 0.00842192 -0.0125135 0.000984 0.0781923 0.00272659 -0.0157243 2650 
767 1 -0.00261007 0.00885081 -0.0120842 0.000175 0.00265158 0.0060159 0.00866435 2650 
126 1 -0.00244082 0.00916361 -0.0123267 0.000175 -0.0168565 0.00939082 -0.00384213 2650 
419 1 -0.0101594 0.0166905 -0.0124731 0.000635 -0.0111162 0.00838709 0.0033233 2650 
17 1 -0.0053588 0.0197028 -0.0125257 0.000635 -0.00706314 0.0120003 0.0106248 2650 
79 1 -0.010055 0.0311281 -0.0127337 0.000635 0.00716482 0.0270894 -0.00847219 2650 
1204 1 -0.00111582 0.0350116 -0.0124795 0.000635 -0.00777141 0.0285737 0.0130943 2650 
1201 1 -0.00020489 0.0474047 -0.0131256 0.000984 -0.0233583 0.0432011 -0.0129132 2650 
253 1 -0.0105027 0.052568 -0.0122772 0.000635 -0.0343073 0.0436924 0.0258117 2650 
140 1 -0.0109804 0.0626156 -0.0125401 0.000984 -0.0166783 0.0529795 -0.00322927 2650 
57 1 -0.0125644 0.000836296 -0.0110021 0.000175 2.21404e-05 -0.0114416 0.000120693 2650 
405 1 -0.009473 0.00201399 -0.011251 6.3e-05 0 -0.011752 0 2650 
548 1 -0.00346432 0.00165824 -0.0117839 0.000635 -0.0002146 -0.00863946 0.00288669 2650 
1128 1 -0.0117176 0.00494564 -0.0113577 0.000175 0.0169967 0.00158806 -0.00867776 2650 
868 1 -0.00824204 0.012913 -0.0118652 6.3e-05 -0.0121823 0.00153366 -0.000714128 2650 