ITEM: TIMESTEP
37661069
ITEM: NUMBER OF ATOMS
1119
ITEM: BOX BOUNDS ff ff ff
-0.15 0.15
-0.15 0.15
-0.15 0.15
ITEM: ATOMS id type x y z radius vx vy vz density 
856 1 -0.00198387 -0.0600635 -0.0687959 0.000175 -10.722 -0.12618 0.308959 2650 
287 1 -0.0107055 -0.0621108 -0.0675243 0.000635 -10.6068 0.000107728 1.68164 2650 
432 1 -0.00941516 -0.0626245 -0.0681792 0.000175 -10.7026 0.000859753 1.47799 2650 
246 1 -0.00617167 -0.0620653 -0.0680887 0.000635 -10.6953 -0.000162647 0.969446 2650 
651 1 -0.0045785 -0.0621099 -0.0682142 0.000635 -10.715 -1.22293e-05 0.719189 2650 
578 1 -0.00327476 -0.0621105 -0.0682892 0.000635 -10.7268 2.76994e-06 0.514397 2650 
307 1 -0.000822404 -0.061816 -0.068017 0.000984 -10.6841 -2.07737e-10 0.129183 2650 
382 1 -0.00971911 -0.0416574 -0.0676756 0.000635 -10.6282 -0.0101529 1.52626 2650 
1257 1 -0.010395 -0.0161215 -0.0680388 0.000175 -9.79989 0.384938 1.49827 2650 
825 1 -0.0184301 -0.0565598 -0.0663117 0.000175 -10.4836 -0.0987572 2.91344 2650 
40 1 -0.0151764 -0.0472979 -0.0666668 0.000635 -10.4334 -0.0297469 2.37632 2650 
672 1 -0.0133744 -0.0471757 -0.0666988 0.000984 -10.477 0.000561376 2.10083 2650 
1188 1 -0.0167883 -0.00448394 -0.0667455 0.000175 -9.68364 -0.242622 2.43418 2650 
864 1 -0.0215366 -0.0506332 -0.06537 0.000175 -10.5417 0.0464464 3.47247 2650 
44 1 -0.0205083 -0.0470185 -0.0652243 0.000635 -10.2462 -0.00124385 3.2217 2650 
859 1 -0.0201267 -0.0014246 -0.065815 0.000175 -8.89734 0.00351396 2.71972 2650 
9 1 -0.0253444 -0.0610777 -0.0634958 0.000635 -9.99784 0.00962223 3.9913 2650 
629 1 -0.0264486 -0.0440504 -0.0635212 0.000175 -10.1012 0.0216265 4.20593 2650 
1081 1 -0.0263676 -0.0621103 -0.0630785 0.000635 -9.90839 -7.68871e-05 4.14184 2650 
1079 1 -0.0274946 -0.0604179 -0.0625938 0.000635 -9.75524 0.0339621 4.28663 2650 
1151 1 -0.0269166 -0.0350116 -0.0633409 0.000175 -10.0191 -0.132184 4.25757 2650 
49 1 -0.0267529 -0.0174488 -0.0628975 0.000635 -9.0749 0.105542 3.85129 2650 
833 1 -0.0271254 -0.0166072 -0.0632266 0.000175 -9.63141 -0.281021 4.12723 2650 
1223 1 -0.0278451 -0.00753411 -0.0629303 0.000175 -7.78285 0.00487846 3.47609 2650 
269 1 -0.0284401 -0.00659296 -0.0627899 6.3e-05 -7.92879 0.160251 3.57168 2650 
956 1 -0.0276202 -0.000174992 -0.0630392 0.000175 -8.69134 -1.34618e-05 3.8076 2650 
700 1 -0.030214 -0.0290766 -0.0618382 0.000175 -8.9296 -0.0349841 4.37086 2650 
96 1 -0.0353342 -0.0286191 -0.0590624 0.000175 -9.11182 0.113969 5.45119 2650 
946 1 -0.0335335 -0.0264383 -0.0595739 0.000635 -8.85003 0.057292 4.98994 2650 
45 1 -0.0350351 -0.0244442 -0.058707 0.000635 -9.14501 0.193057 5.45719 2650 
1200 1 -0.0352647 -0.0372945 -0.0581663 0.000984 -9.13682 0.000165995 5.53941 2650 
361 1 -0.0376385 -0.0366699 -0.0576206 0.000175 -9.02553 0.0557078 5.89553 2650 
1326 1 -0.0376651 -0.0273991 -0.0576036 0.000175 -8.3988 0.532292 5.48503 2650 
1251 1 -0.040275 -0.0239507 -0.0558105 0.000175 -8.75025 0.0682005 6.31445 2650 
122 1 -0.0404029 -0.000174992 -0.0557177 0.000175 -7.70931 -9.49186e-07 5.58556 2650 
897 1 -0.0428841 -0.0253276 -0.0538319 0.000175 -8.36413 0.198077 6.66352 2650 
420 1 -0.0444731 -0.0479636 -0.0519316 0.000635 -8.1574 0.000723391 6.98581 2650 
723 1 -0.0449856 -0.0412607 -0.0520918 0.000175 -8.13522 -0.00147474 7.0256 2650 
553 1 -0.0446756 -0.0381481 -0.051752 0.000635 -7.63837 -0.113904 6.59344 2650 
927 1 -0.0450583 -0.01009 -0.0520286 0.000175 -7.30432 0.141863 6.32368 2650 
1261 1 -0.0447569 -0.0013794 -0.0522842 0.000175 -7.37039 0.286674 6.30323 2650 
83 1 -0.0465938 -0.0472301 -0.0500385 0.000635 -7.8605 -4.52723e-05 7.31937 2650 
295 1 -0.0472638 -0.0426889 -0.0500357 0.000175 -7.84124 0.0614114 7.40674 2650 
1171 1 -0.0465823 -0.0255599 -0.0500422 0.000635 -7.84467 0.0126949 7.30229 2650 
626 1 -0.0468324 -0.0222549 -0.0504357 0.000175 -7.41294 -0.251485 6.88237 2650 
548 1 -0.0459529 -0.0182359 -0.0506264 0.000635 -7.45591 -0.105941 6.76589 2650 
653 1 -0.0474751 -0.0524506 -0.0492003 0.000635 -7.72897 0.00163829 7.45792 2650 
318 1 -0.0475726 -0.0471702 -0.0491088 0.000635 -7.71561 -0.00525633 7.47437 2650 
963 1 -0.0478062 -0.0441624 -0.0495182 0.000175 -7.7974 0.00980112 7.5278 2650 
717 1 -0.0474576 -0.0428328 -0.0492184 0.000635 -7.73109 -0.000190382 7.45452 2650 
821 1 -0.04727 -0.0362877 -0.0500236 0.000175 -7.81595 -0.00261671 7.38596 2650 
800 1 -0.0477589 -0.0322101 -0.0495565 0.000175 -7.80344 0.0700133 7.52055 2650 
725 1 -0.0481359 -0.0157149 -0.0491979 0.000175 -7.74792 -0.0990841 7.58057 2650 
630 1 -0.0479243 -0.00573332 -0.0493967 0.000175 -6.99688 -0.284946 6.78499 2650 
621 1 -0.0485504 -0.0510852 -0.0481404 0.000635 -7.56176 -0.000204724 7.62616 2650 
1241 1 -0.0483075 -0.049718 -0.0483851 0.000635 -7.60037 -0.000113933 7.58818 2650 
1197 1 -0.048955 -6.30039e-05 -0.0485356 6.3e-05 -6.72592 -0.00121766 6.78298 2650 
401 1 -0.0484937 -0.000174992 -0.0488382 0.000175 -6.77619 9.093e-06 6.72529 2650 
715 1 -0.05117 -0.033516 -0.0453397 0.000635 -7.08518 0.0061569 7.99796 2650 
250 1 -0.0501997 -0.0226378 -0.0464139 0.000635 -6.87027 -0.3752 7.4217 2650 
744 1 -0.0527678 -0.0297203 -0.0434697 0.000635 -6.87775 -0.0644395 8.34944 2650 
993 1 -0.0531051 -0.0226813 -0.043777 0.000175 -6.878 -0.0680725 8.34352 2650 
127 1 -0.054032 -0.0422433 -0.0426342 0.000175 -6.6523 0.00630464 8.43103 2650 
62 1 -0.0555136 -0.032582 -0.0406827 0.000175 -6.32618 -0.223973 8.63303 2650 
196 1 -0.0550497 -0.0294549 -0.0413062 0.000175 -6.38433 0.0239788 8.5089 2650 
933 1 -0.0558277 -6.29986e-05 -0.0404417 6.3e-05 -5.65104 8.75329e-08 7.79294 2650 
690 1 -0.0552793 -0.000175023 -0.0410009 0.000175 -5.69924 -0.00117787 7.68134 2650 
1329 1 -0.0555002 -6.29986e-05 -0.0408891 6.3e-05 -5.68444 2.09758e-08 7.71355 2650 
324 1 -0.0555441 -0.000182711 -0.040641 0.000175 -5.63903 0.017708 7.71223 2650 
201 1 -0.0559013 -6.29986e-05 -0.0403392 6.3e-05 -5.6354 4.82701e-08 7.80515 2650 
923 1 -0.0561617 -0.000174986 -0.0397835 0.000175 -5.51934 0.000775846 7.79616 2650 
1264 1 -0.0565113 -6.3005e-05 -0.03948 6.3e-05 -5.46905 -0.00118339 7.83322 2650 
820 1 -0.0571233 -0.0016923 -0.0383849 0.000175 -5.32809 0.108908 7.91338 2650 
786 1 -0.0574705 -0.00512745 -0.0369943 0.000635 -4.42761 -0.0319585 6.87637 2650 
714 1 -0.0582638 -0.0435056 -0.0357688 0.000635 -5.61855 2.34727e-05 9.15205 2650 
413 1 -0.0592173 -0.0310851 -0.0343395 0.000635 -5.39404 1.28501e-06 9.30185 2650 
1287 1 -0.059327 -0.012353 -0.0348797 0.000175 -5.06179 -0.297569 8.67268 2650 
926 1 -0.0607746 -0.0320003 -0.0322974 0.000175 -4.98424 -0.0661228 9.37954 2650 
71 1 -0.0596356 -0.0306927 -0.0327175 0.000984 -5.13098 -0.0295476 9.35459 2650 
732 1 -0.0609451 -0.0282905 -0.031977 0.000175 -4.9883 0.0238694 9.50661 2650 
1084 1 -0.0603427 -0.00322544 -0.0330991 0.000175 -4.57568 0.00139606 8.3376 2650 
582 1 -0.0606958 -0.0313489 -0.0314644 0.000635 -4.93659 -0.0522141 9.52156 2650 
187 1 -0.061051 -0.0300552 -0.030771 0.000635 -4.83252 -0.024934 9.58804 2650 
1120 1 -0.0610676 -0.0296068 -0.0317408 0.000175 -4.96809 0.103874 9.55834 2650 
665 1 -0.0610405 -0.0263488 -0.0317945 0.000175 -4.97023 0.0492302 9.54257 2650 
822 1 -0.0615417 -0.00167286 -0.0308113 0.000175 -4.85236 -0.366038 9.69033 2650 
708 1 -0.0614041 -0.0449857 -0.0300586 0.000635 -4.72239 -1.92765e-05 9.64496 2650 
1045 1 -0.0614099 -0.0437158 -0.0300487 0.000635 -4.72006 2.37773e-05 9.64627 2650 
1309 1 -0.0613951 -0.0424462 -0.0300786 0.000635 -4.72478 4.1288e-05 9.64403 2650 
1179 1 -0.0613804 -0.0411767 -0.0301083 0.000635 -4.72948 4.87066e-05 9.64176 2650 
369 1 -0.0616336 -0.0355931 -0.0306272 0.000175 -4.6523 -0.295614 9.37248 2650 
86 1 -0.000265768 -0.0120374 -0.0688245 0.000175 -9.04971 -0.899212 0.0280763 2650 
184 1 -0.0620764 -0.0268814 -0.0286464 0.000635 -4.48542 -0.0120134 9.71993 2650 
1153 1 -0.0623086 -0.0198637 -0.0292331 0.000175 -4.50121 -0.0333373 9.59343 2650 
94 1 -0.0624091 -0.0183088 -0.0290188 0.000175 -4.47487 0.31888 9.62517 2650 
697 1 -0.0622371 -0.00992548 -0.029383 0.000175 -4.39771 -0.322281 9.31933 2650 
70 1 -0.062127 -0.0419158 -0.0276998 0.000984 -4.35062 -0.000719711 9.75783 2650 
205 1 -0.0622123 -0.0399596 -0.0275031 0.000984 -4.31845 -0.000300464 9.76836 2650 
454 1 -0.0626107 -0.0383911 -0.0274587 0.000635 -4.31236 -0.000406236 9.83296 2650 
814 1 -0.0626652 -0.0371285 -0.0273331 0.000635 -4.29252 -0.000213944 9.84124 2650 
1306 1 -0.0626799 -0.0299911 -0.027301 0.000635 -4.31462 -0.0309151 9.90623 2650 
431 1 -0.0632372 -0.02812 -0.0271637 0.000175 -4.29686 -0.167891 10.0025 2650 
1093 1 -0.0627798 -0.0211629 -0.0282076 0.000175 -4.48115 -0.0921416 9.97186 2650 
865 1 -0.0629679 -0.0174867 -0.027787 0.000175 -4.47335 -0.232927 10.1352 2650 
747 1 -0.0627211 -0.016209 -0.0272125 0.000635 -4.44539 -0.184073 10.2403 2650 
722 1 -0.0632771 -0.0375945 -0.0270489 0.000175 -4.21817 0.244252 9.8641 2650 
1274 1 -0.0637122 -0.0560772 -0.0247984 0.000635 -3.89648 -0.00976351 10.0019 2650 
943 1 -0.0634002 -0.0243779 -0.0255861 0.000635 -4.02493 0.00693885 9.97358 2650 
108 1 -0.0639571 -0.0500488 -0.0241672 0.000635 -3.806 0.00388642 10.0736 2650 
841 1 -0.0640151 -0.0467838 -0.0240135 0.000635 -3.74831 -0.0255832 9.9946 2650 
411 1 -0.0635308 -0.0412249 -0.0243048 0.000984 -3.82089 0.0134143 9.99347 2650 
1085 1 -0.0643859 -0.0404435 -0.0243146 0.000175 -3.80509 0.0507008 10.2447 2650 
702 1 -0.0655338 -0.0431108 -0.0214027 6.3e-05 -3.36425 -0.0694668 10.3007 2650 
219 1 -0.0648808 -0.0127731 -0.0215659 0.000635 -3.16783 -0.141054 9.55497 2650 
535 1 -0.065472 -0.0116222 -0.0212328 0.000175 -3.1102 0.117036 9.59883 2650 
895 1 -0.0653605 -0.000174993 -0.0215597 0.000175 -3.0183 -3.34329e-05 9.1491 2650 
1029 1 -0.0655889 -0.0491284 -0.020868 0.000175 -3.27128 0.0314957 10.2821 2650 
677 1 -0.0652799 -0.040737 -0.0203197 0.000635 -3.18725 -0.015334 10.2401 2650 
158 1 -0.0655245 -0.0337288 -0.0210545 0.000175 -3.23725 0.017262 10.0769 2650 
23 1 -0.0655229 -0.000174993 -0.0210625 0.000175 -2.95245 -4.25719e-07 9.1707 2650 
748 1 -0.0657322 -0.051617 -0.0188097 0.000635 -2.95121 -0.111191 10.3143 2650 
545 1 -0.065439 -0.030477 -0.0197926 0.000635 -3.12342 -0.0251535 10.3245 2650 
72 1 -0.0651177 -0.0252818 -0.0196639 0.000984 -3.08615 0.011803 10.22 2650 
350 1 -0.0661112 -0.0511679 -0.0174319 0.000635 -2.73132 -0.0634093 10.3528 2650 
20 1 -0.0667059 -0.0472081 -0.0169654 0.000175 -2.69147 -0.00771011 10.5836 2650 
212 1 -0.0663884 -0.0459802 -0.0163529 0.000635 -2.56776 -0.0161846 10.4244 2650 
695 1 -0.0667563 -0.0358256 -0.0167458 0.000175 -2.59351 0.391843 10.3385 2650 
597 1 -0.0668468 -0.0338012 -0.0163774 0.000175 -2.55765 0.109701 10.4407 2650 
559 1 -0.0667473 -0.0199596 -0.0167985 0.000175 -2.66481 -0.11253 10.5883 2650 
1112 1 -0.0666729 -0.0537121 -0.0151357 0.000635 -2.38221 -0.0389289 10.4936 2650 
357 1 -0.066623 -0.050188 -0.0153637 0.000635 -2.41153 -0.0142026 10.4574 2650 
1303 1 -0.0664362 -0.0474452 -0.0161565 0.000635 -2.53928 -0.0112699 10.4417 2650 
964 1 -0.0669907 -0.0244647 -0.0157859 0.000175 -2.49293 -0.00148237 10.5783 2650 
1225 1 -0.00114746 -0.00262987 -0.0164857 0.000175 -0.010308 -0.0102208 -0.000931907 2650 
655 1 -0.00114855 -0.00201898 -0.0158882 0.000635 -0.0112354 -0.00626526 -0.00262876 2650 
687 1 -0.0668024 -0.0459526 -0.0145673 0.000635 -2.28982 -0.0635079 10.5045 2650 
1074 1 -0.0667687 -0.0162602 -0.0147192 0.000635 -2.19794 -0.188516 10.0392 2650 
498 1 -0.0063613 -0.00261639 -0.0151958 0.000175 -0.00723133 -0.00354136 0.00401368 2650 
85 1 -0.00417296 -0.00154883 -0.015339 0.000635 -0.00569093 -0.00429074 0.00272881 2650 
542 1 -0.00186301 -0.000988507 -0.0147103 0.000984 -0.00494866 -0.00246492 0.0021629 2650 
16 1 -0.0670678 -0.0567871 -0.0132638 0.000635 -2.07316 -0.0539826 10.4916 2650 
609 1 -0.0669817 -0.0434322 -0.0137116 0.000635 -2.15095 -0.00600798 10.5076 2650 
1160 1 -0.0674299 -0.00809352 -0.0137965 0.000175 -2.15331 -0.64533 10.518 2650 
1328 1 -0.067915 -0.0463269 -0.0111797 0.000175 -1.75701 -0.00558258 10.6736 2650 
116 1 -0.0676604 -0.0554247 -0.00980616 0.000635 -1.53954 -0.0355479 10.6282 2650 
729 1 -0.0681513 -0.0284715 -0.00960268 0.000175 -1.5241 0.0728222 10.8188 2650 
929 1 -0.0683 -0.0411338 -0.00849559 0.000175 -1.34208 0.00889245 10.7887 2650 
91 1 -0.0683584 -0.00273114 -0.00799799 0.000175 -0.956579 0.0278763 8.34444 2650 
1312 1 -0.0679894 -0.0488316 -0.00719357 0.000635 -1.12763 0.032329 10.6534 2650 
1017 1 -0.0679406 -0.0100076 -0.00763019 0.000635 -1.21982 -0.073714 10.785 2650 
1235 1 -0.00688646 -0.000281478 -0.00789085 0.000984 0.00464186 -0.00377635 -0.00666214 2650 
1301 1 -0.0677056 -0.0472916 -0.00656583 0.000984 -1.03107 0.00102534 10.6321 2650 
832 1 -0.0685578 -0.0102775 -0.00605699 0.000175 -0.906944 0.648145 10.2591 2650 
549 1 -0.0025285 -0.00260075 -0.00715268 0.000635 0.00567019 -0.00263088 -0.00491334 2650 
368 1 -0.0686046 -0.00260176 -0.00550052 0.000175 -0.703902 0.157703 8.97259 2650 
299 1 -0.00441845 -0.000429922 -0.00456765 0.000175 -0.00764267 -0.0125105 -0.00437857 2650 
145 1 -0.00291053 -0.000175406 -0.00367429 0.000635 -0.00322775 -0.0042127 0.00475229 2650 
1028 1 -0.00172834 -0.00146322 -0.00293307 0.000175 -0.0095608 -0.00281287 0.00319124 2650 
1059 1 -0.00767906 -0.000162576 -0.0029748 0.000175 0.00422424 -0.00165135 -0.00394982 2650 
36 1 -0.0142516 -0.000424172 -0.000837396 0.000984 0.0102816 -0.00475723 -0.00667675 2650 
790 1 -0.0688208 -0.0405222 0.000674192 0.000175 0.105422 -0.145321 10.7562 2650 
89 1 -0.0688078 -0.00731966 0.00147591 0.000175 0.238026 -0.043327 11.0893 2650 
1193 1 -0.0688112 -0.00830324 0.00136007 0.000175 0.183531 0.263551 9.50003 2650 
1130 1 -0.0688159 -0.00587968 0.00109838 0.000175 0.146546 -0.0295316 9.61253 2650 
144 1 -0.0066556 -0.00298807 0.00173821 0.000635 -0.00892569 -0.00236936 0.00669488 2650 
1096 1 -0.0687318 -0.00218937 0.00355889 0.000175 0.494347 0.0194398 9.53963 2650 
1331 1 -0.0687902 -0.00250259 0.00448758 6.3e-05 0.596047 0.453465 9.12689 2650 
510 1 -0.0679737 -0.0425213 0.00733143 0.000635 1.1501 -0.0285745 10.6602 2650 
1146 1 -0.0679809 -0.0396287 0.00725907 0.000635 1.14055 -0.00509786 10.6803 2650 
532 1 -0.00259099 -0.000816857 0.00736159 0.000175 0.0196388 -0.00873991 0.00166401 2650 
1174 1 -0.0674607 -0.0354874 0.0110971 0.000635 1.74625 0.0130852 10.616 2650 
372 1 -0.0679654 -6.29995e-05 0.0115315 6.3e-05 1.58615 -2.85141e-05 9.38294 2650 
237 1 -0.0678151 -7.0126e-05 0.0123828 6.3e-05 1.70392 0.00768992 9.3521 2650 
977 1 -0.0671642 -0.0538538 0.0127811 0.000635 2.00663 -0.00596914 10.544 2650 
54 1 -0.0674671 -0.00440026 0.0136018 0.000175 1.80281 -0.154622 8.88076 2650 
185 1 -0.0668121 -0.0583444 0.0144984 0.000635 2.27274 0.0308571 10.4725 2650 
992 1 -0.00478115 -6.93183e-05 0.0150488 0.000175 -0.00717676 -0.00730603 0.00479027 2650 
1295 1 -0.0667826 -0.0181184 0.0166603 0.000175 2.50978 0.543978 10.0536 2650 
97 1 -0.0662463 -0.0107915 0.0186755 0.000175 2.68177 0.135725 9.51364 2650 
363 1 -0.0661417 -0.00738472 0.0190214 0.000175 2.4674 -0.0376664 8.52891 2650 
1325 1 -0.0657568 -0.000206044 0.0203199 0.000175 2.71808 0.0342614 8.80733 2650 
260 1 -0.0657138 -0.000698999 0.0204556 0.000175 2.7101 -0.199249 8.7043 2650 
863 1 -0.0648369 -0.00720621 0.0230817 0.000175 3.17958 -0.196605 8.95408 2650 
1166 1 -0.0649883 -6.29985e-05 0.0229948 6.3e-05 3.23455 -0.000182111 9.12978 2650 
397 1 -0.0647269 -0.00765757 0.0233913 0.000175 3.3534 -0.0069625 9.24914 2650 
1141 1 -0.00557696 -0.00609809 0.0255259 0.000635 -0.625834 -0.3381 3.21963 2650 
994 1 -0.0607949 -0.00536926 0.0322219 0.000175 4.71384 -0.457815 8.90261 2650 
1268 1 -0.0590075 -0.0310887 0.0339435 0.000984 5.33184 -1.6268e-07 9.26888 2650 
949 1 -0.0593791 -0.0159159 0.0338863 0.000635 5.07456 -0.155524 8.89542 2650 
990 1 -0.059468 -0.0299661 0.0346475 0.000175 5.441 0.0381685 9.33881 2650 
973 1 -0.058875 -0.0120792 0.0347545 0.000635 5.31256 0.106092 8.97816 2650 
95 1 -0.0584644 -0.0159545 0.0363143 0.000175 5.64244 -0.0395231 9.08469 2650 
427 1 -0.0577374 -0.0132542 0.0374594 0.000175 5.29977 -0.190162 8.17269 2650 
996 1 -0.0573101 -0.036145 0.0381071 0.000175 5.98592 -6.94233e-06 9.00235 2650 
580 1 -0.0568542 -0.0367998 0.0379675 0.000635 5.96394 -2.38134e-05 8.93067 2650 
940 1 -0.056774 -0.0355382 0.0380886 0.000635 5.98305 -4.2647e-05 8.9182 2650 
953 1 -0.0571848 -0.01854 0.0382982 0.000175 6.19449 0.256013 9.2524 2650 
718 1 -0.0554296 -0.0556945 0.0400182 0.000635 6.2834 0.000474143 8.7032 2650 
645 1 -0.0555649 -0.0544363 0.0398308 0.000635 6.24535 -0.0162028 8.71208 2650 
509 1 -0.0555182 -0.0394462 0.0393029 0.000984 6.17256 0.000308849 8.71927 2650 
333 1 -0.0559865 -0.0386658 0.0400278 0.000175 6.28159 -0.022818 8.78607 2650 
210 1 -0.0554545 -0.037978 0.0399823 0.000635 6.28014 -7.35908e-05 8.71039 2650 
243 1 -0.0556712 -0.0317856 0.0396843 0.000635 6.24461 -0.00576261 8.76028 2650 
392 1 -0.0563819 -0.0205018 0.0394719 0.000175 6.32069 0.269693 9.03062 2650 
589 1 -0.0561773 -0.0166434 0.0389665 0.000635 6.17389 0.067162 8.90116 2650 
81 1 -0.0552589 -0.0569305 0.040255 0.000635 6.32018 0.00031065 8.67588 2650 
901 1 -0.0560302 -0.0383577 0.0401577 6.3e-05 6.28472 0.0200347 8.76775 2650 
544 1 -0.0552081 -0.03678 0.0403242 0.000635 6.33413 -1.97267e-05 8.67209 2650 
1208 1 -0.0549518 -0.0355858 0.0406719 0.000635 6.38871 0.000133668 8.63177 2650 
538 1 -0.055507 -0.0114349 0.0408829 6.3e-05 5.78865 -0.563521 7.85093 2650 
1083 1 -0.0542024 -0.0620949 0.041668 0.000635 6.53969 0.00715347 8.50689 2650 
1300 1 -0.0535675 -0.0580226 0.0419211 0.000984 6.5837 -0.00352374 8.41267 2650 
251 1 -0.0540066 -0.0564644 0.0419206 0.000635 6.58344 -0.00357776 8.48147 2650 
903 1 -0.0537461 -0.054883 0.0416914 0.000984 6.56686 -0.00319254 8.46529 2650 
213 1 -0.0536886 -0.0468239 0.0423321 0.000635 6.65395 -0.00746894 8.43895 2650 
898 1 -0.0548976 -0.0318588 0.0415109 0.000175 6.54462 -0.0107709 8.65539 2650 
1239 1 -0.0543862 -0.0312209 0.0414296 0.000635 6.50768 -0.000689962 8.54289 2650 
164 1 -0.0544541 -0.0307585 0.0420912 0.000175 6.61138 -0.000296485 8.55326 2650 
1226 1 -0.0549264 -0.015432 0.0414766 0.000175 6.41565 0.127719 8.49526 2650 
240 1 -0.0530381 -0.0604971 0.0425889 0.000984 6.68962 -0.000258044 8.3309 2650 
1236 1 -0.0532417 -0.056766 0.0428885 0.000635 6.73547 -0.00339744 8.3614 2650 
1034 1 -0.0534403 -0.0388749 0.0435438 6.3e-05 6.84074 0.0907858 8.39511 2650 
1009 1 -0.0527625 -0.0375433 0.0434753 0.000635 6.85119 0.0357516 8.31467 2650 
1031 1 -0.0541941 -0.0334807 0.0424242 0.000175 6.65577 -0.0133958 8.50214 2650 
1233 1 -0.053141 -0.0312026 0.0424641 0.000984 6.67018 -0.000217666 8.3473 2650 
529 1 -0.0540401 -0.014847 0.0426268 0.000175 6.45606 -0.485047 8.18452 2650 
282 1 -0.0521691 -0.0471968 0.0441925 0.000635 6.91298 -0.0273964 8.16088 2650 
314 1 -0.0519834 -0.0426183 0.0444095 0.000635 6.9607 0.00725187 8.14812 2650 
292 1 -0.0523781 -0.0187429 0.044653 0.000175 6.58751 -0.195328 7.72407 2650 
221 1 -0.0507663 -0.0599424 0.0457911 0.000635 7.2127 -0.0565778 7.9946 2650 
551 1 -0.0507894 -0.0573672 0.0457652 0.000635 7.2159 0.0589765 8.0079 2650 
294 1 -0.0512859 -0.0324078 0.0458971 0.000175 7.20571 -0.0240846 8.05173 2650 
1037 1 -0.0499165 -0.0543406 0.0462092 0.000984 7.28021 0.00199493 7.86379 2650 
151 1 -0.049735 -0.0482772 0.0469173 0.000635 7.36967 -0.000524964 7.81225 2650 
157 1 -0.0505498 -0.0356642 0.0467059 0.000175 7.35283 0.163522 7.95779 2650 
476 1 -0.0494383 -0.0196632 0.046726 0.000984 7.37523 -0.0886254 7.80103 2650 
526 1 -0.0499981 -0.0323845 0.0472957 0.000175 7.41882 -0.0725517 7.84243 2650 
231 1 -0.0496058 -0.0268908 0.0477075 0.000175 7.47194 -0.0719975 7.76904 2650 
376 1 -0.0466186 -0.058861 0.0495333 0.000984 7.78971 0.00709139 7.3313 2650 
342 1 -0.0468355 -0.0496033 0.0493359 0.000984 7.74972 9.4018e-05 7.35695 2650 
453 1 -0.048085 -0.0474791 0.0486073 0.000635 7.64563 -0.00585871 7.56349 2650 
520 1 -0.0479036 -0.0422012 0.0487838 0.000635 7.64852 -0.032463 7.51054 2650 
468 1 -0.0480181 -0.0428192 0.0493118 0.000175 7.72552 -0.0402584 7.52272 2650 
14 1 -0.0472057 -0.0413371 0.0494574 0.000635 7.72601 0.0327424 7.37239 2650 
106 1 -0.0469466 -0.0379871 0.049224 0.000984 7.71548 -0.0835306 7.35821 2650 
581 1 -0.0459116 -0.0496591 0.0506641 0.000635 7.95836 -5.82861e-06 7.21182 2650 
50 1 -0.0467334 -0.0473969 0.0499079 0.000635 7.83931 -0.000133267 7.34066 2650 
914 1 -0.0459488 -0.0466459 0.0506308 0.000635 7.95318 6.55672e-05 7.21773 2650 
226 1 -0.0468503 -0.0429189 0.0504223 0.000175 7.95471 -0.0500787 7.39118 2650 
875 1 -0.0463322 -0.0422248 0.0502783 0.000635 7.85949 -0.0275174 7.24244 2650 
460 1 -0.0477396 -0.0319604 0.0495754 0.000175 7.78539 -0.0509371 7.49709 2650 
332 1 -0.046895 -0.0248255 0.0503763 0.000175 7.7919 0.0156049 7.25419 2650 
329 1 -0.0464691 -0.0507896 0.050774 0.000175 7.97475 -0.0133982 7.29859 2650 
593 1 -0.0462066 -0.0510553 0.0510131 0.000175 8.01412 0.00246832 7.25903 2650 
166 1 -0.0451635 -0.0491538 0.0519397 0.000175 8.15867 7.2105e-05 7.09428 2650 
6 1 -0.0449688 -0.049807 0.051502 0.000635 8.08998 5.57652e-05 7.06374 2650 
446 1 -0.0453467 -0.0486407 0.0511708 0.000635 8.0379 3.15276e-05 7.12306 2650 
907 1 -0.0451761 -0.0473807 0.0513206 0.000635 8.0615 1.02484e-05 7.09633 2650 
776 1 -0.0447803 -0.0441225 0.0516664 0.000635 8.1158 4.15945e-05 7.03413 2650 
950 1 -0.0435998 -0.0532582 0.0526637 0.000635 8.27677 0.0275973 6.85177 2650 
1176 1 -0.043953 -0.0499447 0.0523714 0.000635 8.22652 -7.6417e-06 6.90416 2650 
389 1 -0.0441017 -0.0486896 0.0522467 0.000635 8.20688 -1.78089e-05 6.92747 2650 
152 1 -0.043583 -0.0440595 0.0526798 0.000635 8.27491 5.60158e-05 6.84599 2650 
997 1 -0.0443341 -0.0307833 0.0526431 0.000175 8.22002 0.0309968 6.92207 2650 
406 1 -0.0436663 -0.0576518 0.0533429 6.3e-05 8.47464 0.210841 6.93722 2650 
811 1 -0.0423278 -0.0468182 0.0536928 0.000635 8.48021 -0.00323406 6.68522 2650 
918 1 -0.0430053 -0.0452306 0.0531522 0.000635 8.34864 -0.000171871 6.75486 2650 
236 1 -0.042648 -0.0388434 0.054162 6.3e-05 8.55375 0.034343 6.73492 2650 
360 1 -0.0431622 -0.016391 0.0536129 0.000175 4.92866 -0.309168 3.97821 2650 
180 1 -0.0407703 -0.0449427 0.0548837 0.000635 8.62156 0.00076589 6.40453 2650 
726 1 -0.0419997 -0.0329365 0.0545237 0.000175 8.48404 0.0624364 6.5355 2650 
55 1 -0.042196 -0.0231526 0.0543727 0.000175 8.6004 -0.0426716 6.67509 2650 
525 1 -0.0415781 -0.0210336 0.0548478 0.000175 8.68947 0.0754679 6.58747 2650 
576 1 -0.0386585 -0.0381284 0.0563876 0.000635 8.89345 0.0386815 6.09678 2650 
891 1 -0.0392013 -0.0289434 0.0565691 0.000175 8.88953 0.0586982 6.16011 2650 
245 1 -0.0376905 -0.0306471 0.0570391 0.000635 8.91116 -0.0179396 5.8884 2650 
272 1 -0.0386297 -0.0191408 0.0570967 6.3e-05 8.11539 -0.0284408 5.48961 2650 
591 1 -0.0388112 -0.0108732 0.0568383 0.000175 8.65504 0.0251691 5.91137 2650 
464 1 -0.0365702 -0.0405755 0.0583043 0.000175 9.19726 -0.015615 5.7687 2650 
794 1 -0.0364882 -0.0395805 0.0583556 0.000175 9.09819 0.0151352 5.68862 2650 
931 1 -0.0357694 -0.0210822 0.0587994 0.000175 8.51902 0.0265432 5.18135 2650 
169 1 -0.0369739 -0.0189952 0.0581824 6.3e-05 9.41557 -0.511267 5.98093 2650 
312 1 -0.0343311 -0.0310821 0.0592185 0.000635 9.30202 1.01859e-06 5.39271 2650 
10 1 -0.0311393 -0.0349766 0.0608641 0.000635 9.53858 -0.0226046 4.88131 2650 
1022 1 -0.031172 -0.0321422 0.0613611 0.000175 9.60106 -0.0311553 4.87756 2650 
528 1 -0.0318023 -0.0123718 0.0609696 0.000175 8.79904 -0.205174 4.59134 2650 
853 1 -0.0320448 -0.00608552 0.0608854 0.000175 7.98142 -0.0491364 4.20739 2650 
1195 1 -0.0325991 -0.000174991 0.0606133 0.000175 8.38299 -0.000702495 4.50749 2650 
1255 1 -0.0322769 -0.000175063 0.0607867 0.000175 8.40834 0.00215626 4.4572 2650 
633 1 -0.029839 -0.0400704 0.0620125 0.000175 9.77233 -0.123036 4.70234 2650 
552 1 -0.0293937 -0.033122 0.0617256 0.000635 9.69562 0.000143752 4.61706 2650 
568 1 -0.028922 -0.0319285 0.0624525 0.000175 9.82903 0.0787812 4.55202 2650 
930 1 -0.0285984 -0.0310888 0.0626027 0.000175 9.80262 -0.081331 4.47795 2650 
1183 1 -0.0288149 -0.0194733 0.0624464 0.000175 9.89649 -0.227124 4.57214 2650 
146 1 -0.0255654 -0.0393336 0.0634077 0.000635 10.003 0.0178554 4.03291 2650 
678 1 -0.0255857 -0.0335823 0.0633991 0.000635 9.96016 -0.00683805 4.01961 2650 
1217 1 -0.0282968 -0.0324093 0.062738 0.000175 9.89521 0.0838436 4.46299 2650 
317 1 -0.0249193 -0.0311459 0.0636667 0.000635 9.99454 0.00592819 3.91175 2650 
550 1 -0.0266436 -0.00784076 0.0629535 0.000635 8.12065 -0.144715 3.43067 2650 
183 1 -0.023358 -0.0401941 0.0642562 0.000635 10.0638 -0.0449456 3.65972 2650 
682 1 -0.0242184 -0.0391692 0.0639354 0.000635 10.0637 0.0258947 3.81147 2650 
1102 1 -0.0231997 -0.0306635 0.0639432 0.000984 10.0454 -0.000705707 3.64461 2650 
505 1 -0.0248076 -0.00465241 0.0643143 6.3e-05 9.14454 -0.0734846 3.52433 2650 
768 1 -0.0244608 -0.00202091 0.0644502 6.3e-05 8.84569 0.0783223 3.35216 2650 
270 1 -0.0257235 -0.000808075 0.0639572 6.3e-05 8.46959 -0.00332788 3.4146 2650 
112 1 -0.0211358 -0.0501288 0.0650227 0.000635 10.2138 -1.45152e-05 3.32001 2650 
1042 1 -0.0203607 -0.0491537 0.0652701 0.000635 10.2526 -7.2001e-06 3.19826 2650 
601 1 -0.0224135 -0.0309988 0.0650755 0.000175 10.2203 0.0769608 3.52008 2650 
599 1 -0.0200464 -0.0240755 0.0658371 0.000175 10.2357 0.0345497 3.11644 2650 
709 1 -0.0201916 -0.0177275 0.065322 0.000635 9.56849 0.320422 2.96005 2650 
271 1 -0.0208303 -6.29987e-05 0.0657136 6.3e-05 9.21047 -1.4676e-08 2.9191 2650 
802 1 -0.0202295 -6.29986e-05 0.0659012 6.3e-05 9.24061 2.82207e-08 2.83828 2650 
915 1 -0.0162379 -0.0516744 0.0664148 0.000635 10.4322 -0.000562562 2.55057 2650 
936 1 -0.0145969 -0.0511743 0.0664409 0.000984 10.4366 -0.000491038 2.29289 2650 
105 1 -0.0110162 -0.0477092 0.0671278 0.000984 10.5444 -9.94294e-06 1.73041 2650 
38 1 -0.0135236 -0.0469853 0.0666687 0.000984 10.4723 -0.000188664 2.12428 2650 
37 1 -0.0118886 -0.045935 0.0669792 0.000984 10.5209 1.60316e-05 1.86743 2650 
377 1 -0.0141551 -0.0450603 0.0665374 0.000984 10.4516 6.23105e-06 2.22347 2650 
194 1 -0.0167758 -0.0360237 0.0667487 0.000175 10.6065 0.124225 2.66532 2650 
1015 1 -0.0129201 -0.0319365 0.0671352 0.000635 10.562 0.0241825 2.03274 2650 
170 1 -0.016684 -0.0253697 0.0668852 6.3e-05 10.6533 -0.182356 2.65794 2650 
769 1 -0.0165038 -0.0215022 0.0669347 6.3e-05 9.95012 -0.308791 2.45326 2650 
770 1 -0.0192027 -6.29992e-05 0.0662079 6.3e-05 9.29616 -0.000693207 2.69259 2650 
67 1 -0.00288574 -0.000466109 0.068876 6.3e-05 8.78048 -0.00880554 0.371701 2650 
142 1 -0.0116277 -0.0532036 0.0673739 0.000635 10.5838 -0.00544019 1.82655 2650 
787 1 -0.0136328 -0.0461512 0.067466 0.000175 10.5973 -0.000177383 2.14138 2650 
733 1 -0.0101118 -0.0418544 0.0680805 0.000175 10.8052 0.0286234 1.60441 2650 
1007 1 -0.00701372 -0.0380532 0.0680072 0.000635 10.585 -0.0882622 1.09163 2650 
1286 1 -0.013432 -0.0310076 0.0675046 0.000175 10.5264 0.0442134 2.09546 2650 
862 1 -0.0102518 -0.0311797 0.0680579 0.000175 10.7343 0.079677 1.61672 2650 
1105 1 -0.00677517 -0.0275641 0.0680309 0.000635 10.6788 0.0155215 1.06349 2650 
1156 1 -0.0140361 -0.0251683 0.0673784 0.000175 10.5416 -0.0844379 2.19623 2650 
1 1 -0.00975741 -0.024499 0.0673175 0.000984 10.6049 -0.00522184 1.53771 2650 
1078 1 -0.0071374 -0.0209192 0.067995 0.000635 10.6797 -7.00686e-05 1.12102 2650 
902 1 -0.0149367 -0.00702351 0.0672982 6.3e-05 8.70711 -0.0673965 1.9338 2650 
828 1 -0.0114965 -0.00230565 0.0678571 0.000175 9.41602 0.265136 1.59641 2650 
571 1 -0.0116739 -0.000837217 0.0679407 6.3e-05 9.42518 0.0186372 1.62024 2650 
416 1 -9.76078e-05 -0.0310785 0.0684542 0.000635 10.7528 -1.56586e-06 0.0153309 2650 
202 1 -0.00600568 -0.0210189 0.0686745 6.3e-05 9.94966 0.402304 0.868914 2650 
534 1 -0.00431495 -0.00675521 0.068689 0.000175 9.23299 -0.121042 0.58039 2650 
1086 1 -0.00622065 -0.00176404 0.0685424 0.000175 9.24056 -0.0983536 0.8376 2650 
125 1 -0.00700503 -0.000982519 0.0684675 0.000175 9.52564 -3.06359e-05 0.975361 2650 
831 1 -0.00487357 -0.000175027 0.0686523 0.000175 9.44903 0.000341013 0.675319 2650 
1066 1 -0.00470359 -6.29977e-05 0.0687756 6.3e-05 9.47337 -0.00133108 0.647765 2650 
405 1 -0.00482394 -0.000680582 0.0687673 6.3e-05 8.67755 0.0155121 0.606611 2650 
985 1 -0.00457085 -0.000349575 0.0686729 0.000175 9.4559 0.00619258 0.629197 2650 
1006 1 -0.00269247 0.000885383 -0.0159793 0.000635 -0.0137714 0.00047726 0.00254079 2650 
61 1 -0.00197173 0.00222565 -0.0165874 0.000175 -0.0127873 -0.00311011 0.00240668 2650 
1128 1 -0.00502893 0.0076121 -0.0157097 0.000175 0.000837209 0.00525807 0.00174843 2650 
692 1 -0.000722398 0.0104885 -0.0162947 0.000175 0.0106499 -6.75219e-05 -0.0123231 2650 
742 1 -0.00108592 0.03659 -0.015992 0.000635 0.0124997 0.0358624 -0.00210964 2650 
191 1 -0.00517758 0.038883 -0.0158848 0.000175 0.00216265 0.0121964 4.71517e-05 2650 
743 1 -0.00199161 0.0421825 -0.0161106 0.000635 0.002028 0.0191377 0.000243721 2650 
1292 1 -0.00189548 0.04364 -0.0165254 0.000175 0.00717914 0.0270669 -0.000811618 2650 
79 1 -0.00249838 0.0519698 -0.0160468 0.000635 0.0101213 0.025764 0.000159522 2650 
143 1 -0.0025865 0.0549111 -0.0156687 0.000635 -0.00765854 0.0315265 0.00153559 2650 
720 1 -0.00229142 0.00296985 -0.0145269 0.000635 -0.00338862 0.00706658 0.0231573 2650 
1302 1 -2.7776e-05 0.0115801 -0.0155665 0.000635 -0.0104619 0.00504322 -0.000791652 2650 
1101 1 -0.00291944 0.0121175 -0.0155722 0.000984 0.0129205 0.00821668 -0.00353001 2650 
117 1 -0.00531084 0.0229178 -0.0150885 0.000635 -0.000238038 0.0107297 0.000388504 2650 
842 1 -0.00203953 0.0251647 -0.0149098 0.000635 -0.0105771 0.00888282 -0.00725229 2650 
519 1 -0.00552879 0.0365448 -0.0149696 0.000635 -0.0059379 0.0110154 0.0032676 2650 
489 1 -0.00525728 0.0388478 -0.0148641 0.000635 -0.00586318 0.0133736 0.00545782 2650 
874 1 -0.00285413 0.0459566 -0.0152943 0.000635 0.00295724 0.0271634 0.000510855 2650 
1129 1 -0.00402463 0.0479045 -0.014952 0.000175 0.00171262 0.0228448 0.00688754 2650 
1075 1 -0.00350134 0.069429 -0.0148333 0.000635 -0.0107013 0.0367712 -0.00455824 2650 