ITEM: TIMESTEP
13582670
ITEM: NUMBER OF ATOMS
1280
ITEM: BOX BOUNDS ff ff ff
-0.15 0.15
-0.15 0.15
-0.15 0.15
ITEM: ATOMS id type x y z radius vx vy vz density 
1127 1 -0.0620032 -0.0320229 -0.112821 0.000175 -9.66945 -0.128205 -5.34528 2650 
926 1 -0.00294282 -0.036592 -0.0687619 0.000175 -9.32515 1.13887 0.393811 2650 
1188 1 -0.00546491 -0.0139216 -0.0686081 0.000175 -8.33696 0.0693551 0.668968 2650 
88 1 -0.0037067 -0.00151038 -0.0687249 0.000175 -8.21133 0.00304951 0.457374 2650 
651 1 -0.00493472 -0.0620074 -0.0681892 0.000635 -9.76128 0.0188414 0.703897 2650 
166 1 -0.0120276 -0.0488403 -0.0677691 0.000175 -9.10566 0.578645 1.61195 2650 
254 1 -0.00737608 -0.0357813 -0.0679682 0.000635 -9.57714 -0.0385205 1.03627 2650 
584 1 -0.0061099 -0.0357879 -0.0680929 0.000635 -9.60012 -0.0167948 0.861587 2650 
573 1 -0.00520087 -0.034472 -0.067821 0.000984 -9.55763 -0.0204838 0.759489 2650 
346 1 -0.00559524 -0.0328523 -0.0681372 0.000635 -9.56631 -0.0116047 0.794056 2650 
851 1 -0.00449582 -0.0313837 -0.0682181 0.000635 -9.58188 -0.0819677 0.633789 2650 
464 1 -0.0103835 -0.0297886 -0.0680369 0.000175 -9.08019 0.341615 1.38477 2650 
693 1 -0.0133501 -0.0291143 -0.0675168 0.000175 -8.9228 0.108249 1.77096 2650 
695 1 -0.00839635 -0.0239662 -0.0683112 0.000175 -8.8217 0.362537 1.07505 2650 
1057 1 -0.0124727 -0.0212401 -0.0676879 0.000175 -8.56483 0.222801 1.58499 2650 
993 1 -0.0115936 -0.0203737 -0.0678438 0.000175 -6.8559 -0.143376 1.17162 2650 
1087 1 -0.00959876 -0.0193822 -0.0681549 0.000175 -7.82944 0.0220246 1.10212 2650 
1160 1 -0.00992886 -0.0168391 -0.0681076 0.000175 -8.65607 0.0605899 1.27001 2650 
1257 1 -0.0134688 -0.0051193 -0.0674943 0.000175 -8.36525 0.0218183 1.66261 2650 
1078 1 -0.00682346 -0.00511364 -0.0680257 0.000635 -8.16655 0.235427 0.810207 2650 
613 1 -0.00115914 -0.00484376 -0.0683569 0.000635 -8.86879 -0.0712015 0.170022 2650 
406 1 -0.019918 -0.0594179 -0.0659955 6.3e-05 -11.1218 0.687009 3.35682 2650 
1226 1 -0.0195754 -0.0156881 -0.0659875 0.000175 -7.3716 0.390973 2.18613 2650 
609 1 -0.017649 -0.015362 -0.0660554 0.000635 -7.84684 -0.110328 2.07421 2650 
455 1 -0.0209446 -0.030534 -0.0650798 0.000635 -8.90134 -0.0744196 2.83418 2650 
369 1 -0.0223455 -0.0249331 -0.0650914 0.000175 -8.51497 -0.298361 2.92178 2650 
701 1 -0.0215147 -0.0199471 -0.0653769 0.000175 -4.7537 -1.08812 1.56599 2650 
964 1 -0.0198289 -0.00995503 -0.0659083 0.000175 -8.03408 -0.467915 2.4246 2650 
889 1 -0.0220388 -0.00414475 -0.0651997 0.000175 -7.77269 -0.0804895 2.62198 2650 
282 1 -0.0233797 -0.0230139 -0.064245 0.000635 -8.19969 0.0745398 2.97912 2650 
657 1 -0.0291774 -0.0281447 -0.062332 0.000175 -8.70854 0.275068 4.06035 2650 
65 1 -0.028427 -0.00752085 -0.0626783 0.000175 -6.48564 0.0706086 2.91557 2650 
286 1 -0.0289897 -0.0222734 -0.0619111 0.000635 -7.59038 0.112625 3.55625 2650 
1062 1 -0.0306045 -0.0115389 -0.0615361 0.000175 -5.37887 0.00311245 2.64731 2650 
690 1 -0.0315933 -0.0020196 -0.0611421 0.000175 -7.50556 0.115577 3.87603 2650 
856 1 -0.0320563 -0.0379273 -0.0609027 0.000175 -9.44877 0.0476502 4.97294 2650 
961 1 -0.0324991 -0.0308437 -0.0606677 0.000175 -8.20567 0.361419 4.39627 2650 
919 1 -0.0317839 -0.0252363 -0.0610264 0.000175 -6.32899 0.371541 3.30925 2650 
1326 1 -0.0333203 -0.0126264 -0.0601864 0.000175 -6.37446 0.152566 3.64404 2650 
62 1 -0.0315481 -0.0123321 -0.0610594 0.000175 -8.13853 -0.199782 4.24572 2650 
870 1 -0.0343303 -0.0333563 -0.0587213 0.000984 -8.35833 0.0184693 4.86816 2650 
351 1 -0.0367051 -0.0341517 -0.0576744 0.000635 -8.17569 -0.127718 5.18891 2650 
753 1 -0.0358018 -0.0325582 -0.0582393 0.000635 -8.28126 0.103415 5.10005 2650 
561 1 -0.038609 -0.0176982 -0.0569766 0.000175 -6.65908 0.24121 4.50837 2650 
1218 1 -0.0434763 -0.024266 -0.0533545 0.000175 -6.48835 -0.310357 5.29084 2650 
893 1 -0.0440107 -0.00481179 -0.0529131 0.000175 -6.15508 -0.367559 5.1146 2650 
470 1 -0.0441943 -0.000652462 -0.0527604 0.000175 -6.02159 -0.210252 5.0584 2650 
563 1 -0.0456877 -0.0268223 -0.0514722 0.000175 -6.89182 0.503039 6.12109 2650 
989 1 -0.0453671 -0.0228088 -0.0517582 0.000175 -6.85194 -0.629526 6.00528 2650 
1174 1 -0.0458399 -0.0329291 -0.0507209 0.000635 -7.03378 0.00295999 6.35846 2650 
942 1 -0.0486841 -0.0333884 -0.0479968 0.000635 -5.97821 -0.0750144 6.03174 2650 
966 1 -0.0487596 -0.0302972 -0.0487308 6.3e-05 -5.15628 -0.130489 5.14981 2650 
647 1 -0.0488527 -0.0311055 -0.0478343 0.000635 -6.65961 0.100633 6.83632 2650 
3 1 -0.0488758 -0.0278831 -0.0473069 0.000984 -6.31703 -0.0355473 6.51105 2650 
1061 1 -0.0516322 -0.0246413 -0.045508 0.000175 -5.33953 -0.226693 6.05161 2650 
896 1 -0.0518079 -0.034591 -0.045307 0.000175 -5.39318 0.364371 6.15999 2650 
833 1 -0.0520586 -0.0185016 -0.045025 0.000175 -5.66497 -0.24586 6.5448 2650 
312 1 -0.0528784 -0.0282153 -0.043334 0.000635 -5.74953 -0.056111 7.04757 2650 
582 1 -0.0524681 -0.0119682 -0.0438356 0.000635 -3.86249 -0.0124919 4.61257 2650 
302 1 -0.0530201 -0.000397319 -0.0438829 0.000175 -3.84817 -0.0989273 4.66487 2650 
393 1 -0.0545279 -0.0232694 -0.0419965 0.000175 -5.03761 0.170003 6.53864 2650 
363 1 -0.0552785 -0.00856857 -0.0410032 0.000175 -3.3591 -0.382847 4.5211 2650 
1286 1 -0.0547632 -0.00760636 -0.0416882 0.000175 -3.09172 -0.0763279 4.08388 2650 
23 1 -0.0557964 -0.00146918 -0.0402935 0.000175 -4.71533 -0.0420017 6.54618 2650 
732 1 -0.0568437 -0.0218144 -0.0388018 0.000175 -4.29141 -0.0187016 6.27914 2650 
413 1 -0.0567894 -0.0270334 -0.0380655 0.000635 -4.74783 0.0120786 7.06081 2650 
1 1 -0.0569422 -0.00661757 -0.0372103 0.000984 -5.00404 0.0212389 7.64646 2650 
25 1 -0.0588997 -0.0341393 -0.0356041 0.000175 -4.29818 0.142816 7.10307 2650 
862 1 -0.0591443 -0.0313967 -0.0351961 0.000175 -4.74601 0.499901 7.98534 2650 
226 1 -0.0592148 -0.023389 -0.0350757 0.000175 -4.47939 -0.215594 7.56679 2650 
196 1 -0.0602755 -0.0233894 -0.0331854 0.000175 -4.29785 -0.289434 7.77464 2650 
627 1 -0.0613654 -0.0255691 -0.0311295 0.000175 -3.98776 -0.00905507 7.89341 2650 
677 1 -0.0603262 -0.0227141 -0.0320885 0.000635 -4.20123 -0.0651808 7.87133 2650 
333 1 -0.0611411 -0.0221767 -0.031473 0.000175 -4.13009 0.208035 8.0037 2650 
407 1 -0.0610066 -0.00998512 -0.0319871 6.3e-05 -4.11636 -0.167465 7.83935 2650 
245 1 -0.060607 -0.00469529 -0.0316114 0.000635 -3.8806 -0.288412 7.50203 2650 
1084 1 -0.0613224 -0.00454973 -0.0312315 0.000175 -3.84923 -0.320945 7.60776 2650 
1200 1 -0.0611599 -0.0310275 -0.0297715 0.000984 -4.20555 0.0287573 8.69724 2650 
314 1 -0.0616451 -0.0281829 -0.0295448 0.000635 -4.09073 0.0703679 8.54808 2650 
668 1 -0.0627013 -0.0369152 -0.028362 0.000175 -3.64599 0.119864 8.08115 2650 
794 1 -0.0632376 -0.0423483 -0.0271016 0.000175 -3.51907 -0.0620581 8.22643 2650 
897 1 -0.0631304 -0.026892 -0.0274085 0.000175 -3.49517 -0.13077 8.09879 2650 
1053 1 -0.0638798 -0.0134185 -0.0256139 0.000175 -3.06994 -0.951514 7.52791 2650 
20 1 -0.0647216 -0.0474029 -0.0234099 0.000175 -3.09731 -0.152353 8.52375 2650 
909 1 -0.0642996 -0.0459899 -0.0232306 0.000635 -3.17442 -0.00543464 8.76988 2650 
965 1 -0.0649264 -0.0310445 -0.0228451 0.000175 -3.02789 -0.385965 8.54471 2650 
796 1 -0.0657293 -0.021673 -0.0204063 0.000175 -2.30457 -0.110401 7.46391 2650 
1024 1 -0.0660485 -0.0294557 -0.019349 0.000175 -2.69708 -0.330708 9.23024 2650 
930 1 -0.0660347 -0.0198625 -0.0193983 0.000175 -2.48508 -0.0206099 8.48683 2650 
737 1 -0.066052 -0.00191004 -0.0197271 6.3e-05 -2.65462 0.00304107 8.89824 2650 
9 1 -0.0658462 -0.0458487 -0.0184134 0.000635 -2.55478 -0.0551112 9.05472 2650 
1009 1 -0.0659702 -0.0255461 -0.0179387 0.000635 -2.18563 -0.12625 8.00563 2650 
330 1 -0.0664013 -0.0233875 -0.018098 0.000175 -1.93414 -1.00611 7.16235 2650 
699 1 -0.0664535 -0.0228648 -0.0179155 0.000175 -1.72203 0.785409 6.51017 2650 
813 1 -0.0665777 -0.0331314 -0.0155396 0.000635 -2.23559 -0.0377217 9.55587 2650 
365 1 -0.0670819 -0.0361952 -0.0153865 0.000175 -1.98421 0.0305257 8.6755 2650 
1216 1 -0.0671622 -0.0300251 -0.0150341 0.000175 -2.0615 -0.139327 9.21542 2650 
730 1 -0.00522338 -0.000336587 -0.0151825 0.000175 -0.00169859 0.0072546 0.00776203 2650 
293 1 -0.00522133 -0.00245673 -0.0135693 0.000175 -0.00853905 -0.00546385 0.00576206 2650 
1278 1 -0.00551962 -0.00257621 -0.0126148 0.000635 -0.000241225 -0.0140358 0.00651602 2650 
1036 1 -0.0670569 -0.0338171 -0.0114082 0.000984 -1.69969 -0.156876 9.74961 2650 
709 1 -0.0674012 -0.0122743 -0.011476 0.000635 -1.53593 0.375734 8.9386 2650 
514 1 -0.0676362 -0.0328777 -0.00996811 0.000635 -1.40726 -0.0110768 9.52834 2650 
1317 1 -0.0680534 -0.0296936 -0.0102746 0.000175 -1.49239 -0.0845038 9.90019 2650 
49 1 -0.00858754 -0.00144925 -0.00987299 0.000635 -0.0139299 -0.0220544 -0.0114662 2650 
262 1 -0.0682497 -0.0106075 -0.00889502 0.000175 -1.13263 0.157673 8.66847 2650 
1172 1 -0.0111814 -0.000940112 -0.00843603 0.000635 0.00256161 -0.00497894 0.00642154 2650 
560 1 -0.0684616 -0.0390716 -0.00706087 0.000175 -0.91598 0.1274 8.94208 2650 
72 1 -0.0677128 -0.00786584 -0.00646896 0.000984 -0.887646 0.0928162 9.2204 2650 
8 1 -0.0681345 -0.036323 -0.00563456 0.000635 -0.702161 -0.0127233 8.54819 2650 
100 1 -0.0113621 -0.00188367 -0.00525353 6.3e-05 0.00410365 -0.00625385 0.00822095 2650 
756 1 -0.0687162 -0.0298051 -0.00386588 0.000175 -0.510144 -0.181905 8.99583 2650 
899 1 -0.008738 -0.00137227 -0.003735 0.000175 0 -0.011752 0 2650 
4 1 -0.0679685 -0.0306969 -0.00265492 0.000984 -0.408912 0.030075 9.74757 2650 
1228 1 -0.00466637 -0.00358656 -0.00276727 0.000175 -0.58798 -0.0629294 -0.328092 2650 
409 1 -0.0130209 -0.00222928 -0.00316909 0.000984 -0.000126743 -0.00549083 0.011301 2650 
1253 1 -0.0688065 -0.0325679 -0.00159458 0.000175 -0.228072 -0.116313 9.71116 2650 
1156 1 -0.0687923 -0.0198581 -0.0020958 0.000175 -0.0244925 0.356894 3.93647 2650 
591 1 -0.0688117 -0.0159796 -0.00131977 0.000175 -0.124868 -0.0165503 6.39102 2650 
1027 1 -0.013783 -0.00268375 -0.00164413 0.000175 0.00944734 -0.00271906 -0.00513913 2650 
963 1 -0.01299 -0.000440267 -0.002121 0.000175 0 -0.011752 0 2650 
646 1 -0.000102882 -0.00256938 -0.00100571 0.000635 0.0317074 -0.00932188 -0.0318172 2650 
1140 1 -0.006618 -0.00152227 -0.000715 0.000635 0 -0.011752 0 2650 
317 1 -0.004025 -0.00166827 -0.00028 0.000635 0 -0.011752 0 2650 
710 1 -0.0095786 -0.00100874 -0.00118736 0.000635 0.000277387 -0.0035678 0.00229449 2650 
1099 1 -0.0103449 -0.000507722 -0.000728152 6.3e-05 0.00305595 -0.0080969 -0.00445219 2650 
438 1 -0.00194936 -0.00272816 0.000425474 6.3e-05 0.00332055 -0.0140545 0.0435552 2650 
265 1 -0.005736 -0.00135127 0.001012 0.000175 0 -0.011752 0 2650 
820 1 -0.0688117 -0.000524486 0.000985942 0.000175 0.115551 -0.0637415 6.14238 2650 
1101 1 -0.0156764 -0.000655804 0.000839573 0.000984 -0.00344054 0.0209674 -0.0411063 2650 
973 1 -0.0124787 -0.000270655 0.000613689 0.000635 -0.00219092 -0.00665478 -0.00131898 2650 
553 1 -0.00877871 -0.00110915 0.000343602 0.000635 0.00458428 -0.00700168 0.0053124 2650 
164 1 -0.0687538 -0.0246607 0.00256342 0.000175 0.296578 -0.260996 8.31805 2650 
247 1 -0.00846438 -0.00182531 0.00138412 0.000635 0.00439662 -0.00991008 0.00422797 2650 
47 1 -0.00677928 -0.0021457 0.0020936 0.000635 0.00953491 -0.00215823 0.0267824 2650 
319 1 -0.0135985 -4.80941e-05 0.00146874 0.000635 -0.0216484 0.061433 -0.0275994 2650 
770 1 -0.068857 -0.00346304 0.00316914 6.3e-05 0.405149 0.0432616 8.60501 2650 
787 1 -0.012723 -0.00199772 0.00341944 0.000175 0.00324786 -0.0112205 -9.87652e-05 2650 
1154 1 -0.011447 -0.00201781 0.00259549 0.000175 0.00931621 -0.010985 0.0149011 2650 
968 1 -0.011417 -0.00186527 0.003016 6.3e-05 0 -0.011752 0 2650 
869 1 -0.0688687 -0.000262725 0.003058 6.3e-05 0.343348 -0.0953092 7.39467 2650 
990 1 -0.0686456 -0.0121028 0.00431914 0.000175 0.493306 0.105012 6.88111 2650 
328 1 -0.0686709 -0.00617086 0.00440893 0.000175 0.591114 -0.694354 8.63328 2650 
507 1 -0.0138181 -0.00232445 0.00391129 0.000984 0.004176 -0.0143557 0.00788593 2650 
901 1 -0.0123932 -0.00156975 0.00389046 6.3e-05 0.0127146 -0.0138359 0.0118519 2650 
76 1 -0.00996288 -0.00305808 0.00543063 0.000635 0.00760478 -0.00806003 0.0239623 2650 
1023 1 -0.015708 -7.56272e-05 0.00561877 0.000175 0.00679859 -0.0104344 -0.00770012 2650 
916 1 -0.0146571 -0.000490794 0.00525553 0.000635 0.0343915 0.0369843 0.0351131 2650 
74 1 -0.0680048 -0.0411562 0.00703717 0.000635 0.929374 -0.0624853 9.19212 2650 
230 1 -0.0149912 -0.000710069 0.00668691 0.000175 0.0130504 -0.00226478 0.0272949 2650 
392 1 -0.0152373 -6.43266e-05 0.00621863 0.000175 0.0262769 -0.0492264 0.0558065 2650 
610 1 -0.00357226 -0.00044139 0.00669523 0.000635 -0.0164438 -0.00519267 0.0350686 2650 
381 1 -0.0678678 -0.0306711 0.00825072 0.000635 1.12135 -0.0713923 9.17913 2650 
1273 1 -0.00891057 -0.00261087 0.00781798 0.000635 0.0103581 -0.00976524 0.0279094 2650 
1158 1 -0.000161 -0.00295727 0.008128 0.000175 0 -0.011752 0 2650 
1166 1 -0.002781 -0.00185727 0.007491 6.3e-05 0 -0.011752 0 2650 
11 1 -0.0677365 -0.0339476 0.00925669 0.000635 1.27837 0.271303 9.49707 2650 
1001 1 -0.068275 -0.0329828 0.00952272 6.3e-05 1.32376 -0.752572 9.5009 2650 
361 1 -0.0682119 -0.0183145 0.00903223 0.000175 1.00569 0.409557 7.48911 2650 
89 1 -0.000242498 -0.00106607 0.00872033 0.000175 -0.000422946 -0.00475265 -0.00205368 2650 
70 1 -0.0671835 -0.0389348 0.010641 0.000984 1.49441 -0.069777 9.69626 2650 
250 1 -0.011804 -0.00254262 0.010445 0.000635 -0.00149738 -0.00993465 -0.000106233 2650 
44 1 -0.005519 -0.00225627 0.009619 0.000635 0 -0.011752 0 2650 
18 1 -0.0680569 -0.000207063 0.0102513 0.000175 0.866171 -0.0300459 5.8117 2650 
184 1 -0.0121004 -0.000671168 0.0106951 0.000635 -0.00336082 -0.0109243 -0.00646554 2650 
1293 1 -0.000628365 -0.000669283 0.0106602 0.000175 0.0139256 0.00184866 -0.00521532 2650 
541 1 -0.066989 -0.0276367 0.011784 0.000984 1.6034 0.00971684 9.04969 2650 
782 1 -0.0673584 -0.0260337 0.0116958 0.000635 1.57719 0.0257702 9.07987 2650 
1325 1 -0.00156907 -0.00259892 0.0117382 0.000175 -0.0484903 -0.0529173 0.119398 2650 
1206 1 -0.00101836 -0.00168477 0.0115594 0.000635 0.0154314 -0.000319831 -0.000338176 2650 
1077 1 -0.0672496 -0.0328742 0.0123089 0.000635 1.6996 -0.0677895 9.24866 2650 
672 1 -0.066883 -0.0302086 0.012382 0.000984 1.66992 -0.20758 8.86997 2650 
628 1 -0.0675375 -0.0280024 0.0132433 0.000175 1.81404 -0.130344 9.28638 2650 
404 1 -0.0676799 -0.0245166 0.0124774 0.000175 1.64237 1.84046 8.87524 2650 
71 1 -0.00727163 -0.00229944 0.0129152 0.000984 0.0723048 0.011167 -0.0999677 2650 
399 1 -0.004112 -0.00214127 0.012594 0.000175 0 -0.011752 0 2650 
280 1 -0.00983359 -0.00105989 0.0124334 0.000635 -0.0637077 0.0599844 -0.0955613 2650 
1175 1 -0.00344739 -0.0005531 0.0124782 0.000635 0.0212197 -0.00524299 0.0046981 2650 
1177 1 -0.0015933 -0.000361405 0.0126908 0.000635 0.0441343 0.074372 -0.0626365 2650 
599 1 -0.005032 -0.00228727 0.014373 0.000175 0 -0.011752 0 2650 
132 1 -0.004927 -0.00170227 0.013767 0.000175 0 -0.011752 0 2650 
411 1 -0.000951457 -0.00233165 0.0136901 0.000984 0.122042 0.0170514 -0.0645723 2650 
1121 1 -0.007886 -0.000673267 0.014114 0.000175 0 -0.011752 0 2650 
1002 1 -0.00526143 -0.000523631 0.0134372 0.000984 0.0173818 -0.00492511 0.0247377 2650 
725 1 -0.00438956 -0.000739432 0.0143236 0.000175 0.0134121 -0.0274153 0.0137156 2650 
99 1 -0.0671695 -0.0408045 0.0150145 0.000175 2.0836 -0.0439707 9.31746 2650 
496 1 -0.0671352 -0.0194495 0.0151655 0.000175 1.91665 -0.243121 8.45002 2650 
567 1 -0.00266636 -0.00358562 0.0158701 0.000175 -0.35489 -0.0602274 2.1123 2650 
372 1 -0.0668975 -6.30231e-05 0.0166439 6.3e-05 1.58411 -0.00254091 6.32285 2650 
199 1 -0.066833 -0.000174987 0.0164369 0.000175 1.56785 -3.04321e-05 6.31242 2650 
33 1 -0.0668672 -0.00104086 0.0167615 6.3e-05 1.63847 -0.346776 6.57975 2650 
1241 1 -0.0660153 -0.0399784 0.0177833 0.000635 2.49258 0.109665 9.25966 2650 
996 1 -0.0661713 -0.041106 0.018933 0.000175 2.01251 -0.835306 7.13923 2650 
520 1 -0.0656096 -0.0298898 0.0192168 0.000635 2.65407 0.101714 8.99806 2650 
1184 1 -0.0659002 -0.0374912 0.0198473 0.000175 2.6855 0.317577 8.88442 2650 
617 1 -0.0654262 -0.016387 0.0198502 0.000635 2.55989 0.104492 8.45664 2650 
473 1 -0.0660595 -0.00951168 0.0197158 6.3e-05 2.35082 0.0833121 7.87053 2650 
163 1 -0.0649825 -0.0353558 0.0226683 0.000175 3.23554 -0.0816074 9.27967 2650 
1079 1 -0.0643757 -0.0463448 0.0230079 0.000635 3.1856 0.259916 8.96577 2650 
714 1 -0.0641948 -0.0372932 0.0235012 0.000635 3.30713 -0.0299553 9.02356 2650 
402 1 -0.0643638 -0.018612 0.0243851 0.000175 3.27009 -0.324369 8.62802 2650 
1301 1 -0.0630746 -0.0399534 0.0254274 0.000984 3.58684 0.0596213 8.93687 2650 
116 1 -0.0631461 -0.0370797 0.0261958 0.000635 3.68541 -0.134586 8.91507 2650 
362 1 -0.0638633 -0.026888 0.0256556 0.000175 3.58841 0.394648 8.9383 2650 
1151 1 -0.0637883 -0.0265187 0.0258418 0.000175 3.47281 0.307997 8.56747 2650 
659 1 -0.06224 -0.0228919 0.0293785 0.000175 4.02741 0.525979 8.55309 2650 
420 1 -0.0604816 -0.0373288 0.031838 0.000635 4.54863 -0.031121 8.65938 2650 
1037 1 -0.0594809 -0.0400442 0.0329682 0.000984 4.70246 -0.0584754 8.45829 2650 
1289 1 -0.0604985 -0.0374004 0.0327719 0.000175 4.71801 -0.0351724 8.7042 2650 
1236 1 -0.0572219 -0.0447655 0.0374139 0.000635 5.47056 0.303897 8.36497 2650 
1007 1 -0.0563954 -0.0259069 0.038647 0.000635 4.87709 -0.012394 7.10824 2650 
83 1 -0.055517 -0.0381406 0.0399 0.000635 5.66894 0.00914534 7.87134 2650 
708 1 -0.054491 -0.0432965 0.0412933 0.000635 5.86049 0.00352938 7.73225 2650 
977 1 -0.0540205 -0.0377708 0.0419035 0.000635 5.94235 0.070281 7.6795 2650 
157 1 -0.0550515 -0.030477 0.0413059 0.000175 5.20107 -0.105536 6.93127 2650 
185 1 -0.0537169 -0.0441375 0.0422961 0.000635 6.04316 -0.00820306 7.63752 2650 
1112 1 -0.0530193 -0.0380764 0.0431644 0.000635 6.10601 0.0526006 7.50649 2650 
37 1 -0.0520676 -0.0462715 0.0437751 0.000984 6.26656 -0.128402 7.50154 2650 
82 1 -0.0523249 -0.0332367 0.0440004 0.000635 5.88662 -0.211369 7.01063 2650 
760 1 -0.0534253 -0.0304349 0.0433892 0.000175 5.67687 0.00360104 7.00025 2650 
178 1 -0.0522578 -0.030813 0.0440824 0.000635 6.05538 0.0507499 7.19654 2650 
161 1 -0.0522546 -0.0423754 0.0447969 0.000175 5.46508 0.0508495 6.38303 2650 
748 1 -0.0518343 -0.0383205 0.0445805 0.000635 6.32544 -0.0393443 7.35546 2650 
525 1 -0.0522068 -0.0111562 0.044853 0.000175 5.19295 -0.0127274 6.05039 2650 
32 1 -0.050636 -0.00442773 0.0467784 6.3e-05 5.23707 0.156643 5.66087 2650 
228 1 -0.0497876 -0.0293872 0.0475181 0.000175 6.67793 0.945133 7.00044 2650 
928 1 -0.0502453 -0.00663306 0.047036 0.000175 2.92766 0.79739 3.07157 2650 
857 1 -0.0471022 -0.00130586 0.0501806 0.000175 5.22249 -0.119531 4.89125 2650 
934 1 -0.0466077 -0.0328164 0.0507931 6.3e-05 5.37983 -0.484282 4.93292 2650 
260 1 -0.0466551 -0.00849579 0.0505983 0.000175 5.05653 0.234544 4.65798 2650 
653 1 -0.0426425 -0.0544627 0.0534292 0.000635 7.26137 -0.0149287 5.7931 2650 
509 1 -0.0415418 -0.0375737 0.0538591 0.000984 7.7742 -0.033292 6.0119 2650 
1045 1 -0.0431297 -0.0352662 0.053042 0.000635 7.5389 -0.00439716 6.13298 2650 
950 1 -0.0417659 -0.0354881 0.0541199 0.000635 7.7418 0.00455133 5.96805 2650 
1285 1 -0.0427657 -0.00810069 0.0539204 0.000175 5.26278 -0.724143 4.17707 2650 
1309 1 -0.0402564 -0.0374989 0.0552537 0.000635 8.0187 -0.0831873 5.82656 2650 
723 1 -0.0417237 -0.0334148 0.0547302 0.000175 7.45276 0.182064 5.67676 2650 
621 1 -0.0407434 -0.0332182 0.0548981 0.000635 7.69946 -0.0337181 5.72467 2650 
915 1 -0.0396861 -0.0567655 0.0556616 0.000635 4.38654 0.37605 2.93002 2650 
246 1 -0.0386961 -0.0547782 0.0563151 0.000635 7.95167 -0.11059 5.49563 2650 
1092 1 -0.0398951 -0.0378441 0.0560723 0.000175 8.29758 0.090117 5.91537 2650 
949 1 -0.0384944 -0.0028149 0.0564933 0.000635 6.72264 -0.00821593 4.613 2650 
401 1 -0.039361 -0.0001752 0.0564583 0.000175 5.82948 0.00146156 4.05437 2650 
240 1 -0.0368442 -0.0391853 0.0571351 0.000984 8.36679 -0.012213 5.39293 2650 
210 1 -0.0371281 -0.0368168 0.0574001 0.000635 8.22521 0.0737241 5.34302 2650 
1321 1 -0.0381634 -0.0222191 0.0572225 0.000175 6.68528 0.0177309 4.49959 2650 
1019 1 -0.037541 -0.0208958 0.0576125 0.000175 6.78879 0.271013 4.44108 2650 
861 1 -0.0387126 -0.015223 0.0568461 0.000175 6.25759 -0.958099 4.34721 2650 
663 1 -0.039013 -0.00967785 0.0566287 0.000175 6.70678 -0.505321 4.69178 2650 
1090 1 -0.0385331 -0.00353311 0.0570195 0.000175 6.53361 0.219326 4.43731 2650 
1096 1 -0.038084 -0.00017504 0.0573279 0.000175 5.96937 -0.0026297 3.9408 2650 
825 1 -0.037448 -0.059888 0.0577359 0.000175 8.00755 0.374831 5.18138 2650 
38 1 -0.0352238 -0.0412 0.0581504 0.000984 8.52242 -0.0212716 5.13573 2650 
1083 1 -0.0360902 -0.0380038 0.0580417 0.000635 8.44027 0.0387475 5.25064 2650 
183 1 -0.036491 -0.0271959 0.0577936 0.000635 7.62036 0.0499643 4.88627 2650 
223 1 -0.0356044 -0.0122457 0.0588547 0.000175 7.48739 0.169891 4.45703 2650 
936 1 -0.0333518 -0.0491624 0.0592827 0.000984 8.49883 -0.00996779 4.77952 2650 
16 1 -0.03426 -0.0393772 0.0591636 0.000635 8.3456 -0.0402652 4.83267 2650 
151 1 -0.0340371 -0.037972 0.0592931 0.000635 8.37047 -0.0343128 4.80783 2650 
441 1 -0.0317346 -0.0481492 0.0601627 0.000984 8.66543 -0.0432319 4.55655 2650 
1303 1 -0.0314241 -0.0208818 0.0607165 0.000635 5.02334 -0.742801 2.62891 2650 
997 1 -0.0322415 -0.0167786 0.0608045 0.000175 7.82667 -0.164349 4.14792 2650 
104 1 -0.0291629 -0.0494043 0.0614549 0.000984 8.78054 0.0116352 4.15674 2650 
105 1 -0.0276128 -0.0421149 0.0621662 0.000984 9.01998 -0.021305 4.01012 2650 
1176 1 -0.0290358 -0.0400748 0.0618956 0.000635 8.81017 -0.078549 4.13567 2650 
717 1 -0.0290299 -0.0323848 0.0618981 0.000635 8.50471 -0.768571 3.98932 2650 
1294 1 -0.0289681 -0.0308441 0.0624317 0.000175 7.75885 0.31325 3.58457 2650 
559 1 -0.0261972 -0.025752 0.0636441 0.000175 5.80737 -1.20273 2.41364 2650 
176 1 -0.0260678 -0.0125058 0.0632046 0.000635 6.12638 0.0986681 2.49465 2650 
768 1 -0.0289148 -0.00867923 0.0625804 6.3e-05 7.25415 -0.59066 3.33471 2650 
684 1 -0.0218627 -0.0315756 0.0647762 0.000635 8.6962 0.0737481 2.94408 2650 
146 1 -0.023903 -0.0293498 0.0640527 0.000635 8.5814 -0.222316 3.2111 2650 
658 1 -0.0258313 -0.0163933 0.063796 0.000175 8.05026 -0.11741 3.2594 2650 
155 1 -0.0249161 -0.0159675 0.0641599 0.000175 6.67816 -0.592187 2.57997 2650 
342 1 -0.0198539 -0.0383764 0.0650616 0.000984 9.32049 -0.0346129 2.84339 2650 
940 1 -0.0172404 -0.0348082 0.0661573 0.000635 8.89349 -0.0790733 2.30818 2650 
158 1 -0.015252 -0.0320102 0.067113 0.000175 8.7756 -0.621204 1.98248 2650 
983 1 -0.0157363 -0.00883534 0.0665336 0.000635 3.69595 0.00436058 0.828755 2650 
1299 1 -0.00877677 -0.0618081 0.0674512 0.000984 10.3068 -0.0126599 1.33875 2650 
1031 1 -0.00886045 -0.0417049 0.0682541 0.000175 9.7282 -0.511519 1.26529 2650 
536 1 -0.00785753 -0.040255 0.0683756 0.000175 5.76561 0.975241 0.674925 2650 
738 1 -0.0067765 -0.0391304 0.0676814 0.000984 9.85346 0.120655 0.985665 2650 
907 1 -0.00477721 -0.0374069 0.0682007 0.000635 9.34899 0.122051 0.648366 2650 
1300 1 -0.00655901 -0.0368518 0.0677051 0.000984 9.8651 0.0188075 0.911853 2650 
13 1 -0.00859011 -0.0309994 0.0678259 0.000635 8.98992 0.145035 1.12682 2650 
40 1 -0.00188239 -0.031205 0.0683417 0.000635 9.29141 -0.180859 0.239061 2650 
1041 1 -0.00462604 -0.0211786 0.0681221 0.000635 7.24209 -0.188805 0.532493 2650 
545 1 -0.00139777 -0.0187079 0.0683162 0.000635 8.35631 0.0820196 0.104564 2650 
368 1 -0.0106195 -0.0116732 0.0679973 0.000175 8.06432 0.13525 1.32667 2650 
955 1 -0.0102538 -0.00949759 0.0679421 0.000175 5.19283 2.3222 0.493135 2650 
416 1 -0.00993172 -0.0104029 0.067625 0.000635 3.92999 -0.148887 0.671614 2650 
1328 1 -0.00305671 -0.0462191 0.0687566 0.000175 8.60992 -0.336189 0.380694 2650 
736 1 -0.00383134 -0.024274 0.0688029 6.3e-05 7.8592 -0.579106 0.468372 2650 
724 1 -0.00401526 -0.00743823 0.0686635 0.000175 7.89238 0.244537 0.466397 2650 
1170 1 -0.0126831 0.0647558 -0.0190993 0.000635 -1.31036 0.0499338 -2.03076 2650 
28 1 -0.000675365 0.0121036 -0.0166814 0.000175 -0.0287869 0.0100059 -0.00114996 2650 
1139 1 -0.00178571 0.0136005 -0.0157321 0.000635 -0.00678479 0.0074902 0.00544325 2650 
17 1 -0.00348473 0.0161591 -0.0158961 0.000635 -0.00155507 0.00516265 -0.0122057 2650 
675 1 -0.000685826 0.0175133 -0.015764 0.000635 0.0112122 0.0274627 -0.00386522 2650 
691 1 -0.00236493 0.0192325 -0.0158255 0.000175 -0.00298074 0.0235583 0.0044759 2650 
313 1 -0.00157802 0.0252253 -0.0157586 0.000635 -0.00274908 0.0403995 0.00210658 2650 
96 1 -0.0026905 0.00142158 -0.0155536 0.000175 0.0465556 -0.00637946 -0.00579217 2650 
847 1 -0.00555748 0.00479925 -0.0150306 0.000635 -0.0202104 0.00466465 0.0194161 2650 
474 1 -0.00452542 0.00641526 -0.0148634 0.000984 0.000665082 0.00417882 0.000940093 2650 
767 1 -0.00101114 0.00755211 -0.0148632 0.000175 -0.0252108 -0.00453812 0.00317622 2650 
117 1 -0.00512098 0.00959094 -0.0154107 0.000635 -0.000477 0.0118431 -0.000567385 2650 
348 1 -0.00372242 0.00982353 -0.0151152 0.000635 0.00329026 0.007171 0.0035259 2650 
487 1 -0.00628742 0.0118655 -0.0150337 0.000635 -0.0138069 0.0121665 0.0084272 2650 
533 1 -0.00354309 0.0120174 -0.0148451 0.000175 -0.00626686 0.0279532 -0.0119836 2650 
419 1 -0.00587592 0.0140515 -0.0144608 0.000635 -0.01033 0.00463992 0.010283 2650 
1050 1 -0.0037749 0.0188497 -0.0150073 0.000635 0.0035294 0.0231675 -0.00476574 2650 
784 1 -0.00432544 0.0233791 -0.0154441 0.000635 0.00502256 0.0258087 0.000935437 2650 
373 1 -0.0076695 0.0278027 -0.0149037 6.3e-05 -0.00267287 0.0367315 0.00271403 2650 
234 1 -0.000208991 0.0322056 -0.0149412 0.000175 -0.0385056 0.0290834 -0.0155303 2650 
315 1 -0.00165778 0.0496996 -0.0145297 0.000635 0.00602022 0.0560438 0.0019191 2650 
886 1 -0.0034793 0.00480627 -0.01344 0.000175 0.0138406 0.0024834 -0.0279966 2650 
619 1 -0.00553851 0.00845422 -0.0135462 0.000635 -0.0262705 0.00818104 0.00770739 2650 
556 1 -0.00449529 0.0105153 -0.0136492 0.000635 -0.0271368 0.00444592 -0.00447808 2650 
1189 1 -0.00838893 0.0157388 -0.0135448 0.000175 0.00774618 0.00643291 0.000792505 2650 
310 1 -0.0047758 0.0172243 -0.0142835 0.000984 0.00266882 0.0187035 0.00677149 2650 
1005 1 -0.000983647 0.0183087 -0.0135214 0.000635 0.0113671 0.0366114 0.00401502 2650 
824 1 -0.00650193 0.0192172 -0.0135177 0.000175 -0.000554017 0.0181768 0.00467615 2650 
408 1 -0.00507585 0.0200898 -0.0141965 0.000984 0.000190428 0.0210859 0.00181813 2650 
872 1 -0.00735309 0.0204323 -0.0142457 0.000984 -0.00120448 0.0192909 0.000553858 2650 
880 1 -0.00582794 0.0244805 -0.014229 0.000635 -0.00363808 0.0252653 0.000397265 2650 
177 1 -0.00880337 0.0265317 -0.0135095 0.000635 0.00796068 0.0288977 -0.00357367 2650 
1155 1 -0.00886072 0.0277384 -0.0142231 0.000175 0.123974 0.0110375 -0.0651328 2650 
837 1 -0.00453496 0.0286012 -0.0140799 0.000984 0.0119565 0.0228367 0.0128419 2650 
1073 1 -0.00574636 0.0312186 -0.013634 0.000635 0.0138683 0.0321747 -4.51351e-05 2650 
456 1 -0.00089122 0.0328056 -0.0142563 0.000635 -0.00195361 0.0272224 0.018189 2650 
216 1 -0.00232391 0.0376677 -0.014029 0.000635 -0.00549902 0.0404243 -0.0470845 2650 
396 1 -0.00472367 0.0427457 -0.0135951 0.000175 0.0204189 0.0329489 0.0363479 2650 
1122 1 -0.00193455 0.0520962 -0.0133197 0.000175 0.00492764 0.086685 -0.000120932 2650 
1225 1 -0.00856865 0.000129153 -0.0125418 0.000175 0.00899803 -0.00139947 -0.0060161 2650 
190 1 -0.0058942 0.00135903 -0.0128053 0.000175 -0.0375423 -0.00596464 -0.00610135 2650 
85 1 -0.00925959 0.00390663 -0.0130514 0.000635 0.0055464 -0.00602068 -0.0111466 2650 
548 1 -0.00522358 0.00378707 -0.0122795 0.000635 0.0143247 0.000476519 -0.00186292 2650 
650 1 -8.39574e-05 0.00555041 -0.0125651 0.000635 -0.0181837 -0.00789212 -0.00167587 2650 
235 1 -0.011148 0.0074302 -0.0121851 6.3e-05 0.0328123 -0.0058093 -0.0332174 2650 
1310 1 -0.00357934 0.00964164 -0.0120179 0.000635 0.00614713 0.00857071 0.0180321 2650 
877 1 -0.0025709 0.015386 -0.0121578 0.000635 -0.0179583 0.0127639 0.0210487 2650 
148 1 -0.00153171 0.0202344 -0.0124003 0.000635 -0.010621 0.00133561 0.00951416 2650 
428 1 -0.00825283 0.0236414 -0.0129183 0.000175 -0.000384293 0.0296681 0.00365645 2650 
771 1 -0.00326749 0.0228194 -0.0131879 0.000984 -0.0123803 0.026909 0.00601443 2650 
492 1 -0.0078151 0.0322561 -0.0121752 0.000175 0.00664413 0.0336774 0.00376488 2650 
620 1 -0.00526108 0.0399401 -0.0130747 0.000635 -0.029837 0.0545875 0.00274848 2650 
711 1 -0.0064331 0.044008 -0.0129376 0.000635 0.00835326 0.0396037 0.0379973 2650 
1135 1 -0.00239177 0.0594312 -0.0122543 0.000984 0.0310406 0.0641004 0.0167597 2650 
859 1 -0.0106847 0.00118782 -0.0119402 0.000175 0.00575666 -0.0120308 -0.00417212 2650 
727 1 -0.011638 0.00281073 -0.011173 0.000175 0 -0.011752 0 2650 
57 1 -0.0125562 0.00518718 -0.0110314 0.000175 -0.000116684 -0.0114675 -1.78887e-05 2650 
405 1 -0.009473 0.00647973 -0.011251 6.3e-05 0 -0.011752 0 2650 
1065 1 -0.00979412 0.00754172 -0.0111837 6.3e-05 0.00512273 0.00268936 0.0073814 2650 
1039 1 -0.00496953 0.00881219 -0.0119009 0.000635 -0.00330187 0.0116307 0.0185482 2650 
508 1 -0.00579434 0.0111994 -0.0110895 0.000984 -0.0391921 0.00932107 -0.00150982 2650 
692 1 -0.00843245 0.0125663 -0.0113103 0.000175 0.00355678 0.0115252 -0.0328569 2650 
1243 1 -0.00590376 0.0130569 -0.0115683 0.000635 -0.00609398 0.0105943 -0.00542388 2650 
868 1 -0.00361277 0.0123302 -0.0115938 6.3e-05 -0.0121823 0.00153366 -0.000714128 2650 
595 1 -0.00865925 0.0193347 -0.0116571 0.000175 -0.0340172 0.0137037 0.00896531 2650 
1165 1 -0.00495147 0.0197467 -0.0109653 6.3e-05 6.36838e-05 0.0159872 0.00158631 2650 
1107 1 -0.00454228 0.0262733 -0.011686 0.000635 0.0277295 0.0195193 -0.0350975 2650 
140 1 -0.00442171 0.0422467 -0.0111956 0.000984 -0.0243215 0.0611698 -0.00728863 2650 
572 1 -0.00290772 0.0616504 -0.0108262 6.3e-05 0.00521187 0.0674686 0.0292983 2650 
290 1 -0.0309303 0.0746909 -0.0112422 0.000175 -4.15055 0.492683 -1.5855 2650 
927 1 -0.0129447 0.000820268 -0.0104436 0.000175 0.0139261 -0.0474133 -0.0172452 2650 