ITEM: TIMESTEP
9466710
ITEM: NUMBER OF ATOMS
1310
ITEM: BOX BOUNDS ff ff ff
-0.15 0.15
-0.15 0.15
-0.15 0.15
ITEM: ATOMS id type x y z radius vx vy vz density 
1162 1 -0.00396738 -0.0239177 -0.06871 0.000175 -7.72576 0.616388 0.445127 2650 
468 1 -0.00126968 -0.0183369 -0.068813 0.000175 -7.70434 -0.135735 0.153065 2650 
693 1 -0.000844329 -0.0184853 -0.0688195 0.000175 -7.93725 0.481321 0.10764 2650 
130 1 -0.00393547 -0.0037586 -0.0687123 0.000175 -8.84623 -0.177436 0.52218 2650 
909 1 -0.0112882 -0.0419168 -0.0674318 0.000635 -8.2401 -0.0498214 1.37702 2650 
9 1 -0.0100947 -0.0415224 -0.0676192 0.000635 -8.28243 0.0412831 1.23055 2650 
1064 1 -0.00855596 -0.0349037 -0.0682906 0.000175 -9.03497 0.0855971 1.12944 2650 
509 1 -0.00062706 -0.0335092 -0.0680167 0.000984 -8.31294 -0.0638146 0.117407 2650 
996 1 -0.0124596 -0.0310482 -0.0676898 0.000175 -6.15395 -0.79 1.19787 2650 
753 1 -0.00314284 -0.0292976 -0.0682954 0.000635 -7.71107 -0.037371 0.359007 2650 
1036 1 -0.00463838 -0.0265105 -0.0678619 0.000984 -7.66527 0.346796 0.528004 2650 
870 1 -0.00133491 -0.0231804 -0.0680068 0.000984 -7.76885 0.0214107 0.1837 2650 
351 1 -0.00797595 -0.0162253 -0.0679021 0.000635 -7.91219 0.0635462 0.90505 2650 
1076 1 -0.00871078 -0.0151089 -0.0678129 0.000635 -7.95727 0.111631 1.02396 2650 
903 1 -0.00659275 -0.0153409 -0.0677029 0.000984 -7.79756 0.00560131 0.767348 2650 
50 1 -0.0152046 -0.0608109 -0.0666546 0.000635 -7.33847 -0.164117 1.66464 2650 
1037 1 -0.0127573 -0.0422213 -0.066815 0.000984 -8.12788 -0.480382 1.53219 2650 
896 1 -0.0182893 -0.0357904 -0.0663497 0.000175 -9.16828 -0.358431 2.52635 2650 
1300 1 -0.016551 -0.035535 -0.065976 0.000984 -8.59822 -0.200374 2.14929 2650 
621 1 -0.0176456 -0.0329941 -0.0660499 0.000635 -8.8453 -0.130271 2.35853 2650 
314 1 -0.0133139 -0.0223566 -0.0670592 0.000635 -8.36038 0.54014 1.65347 2650 
1264 1 -0.0159421 -0.0117657 -0.0670712 6.3e-05 -9.18735 0.332504 2.19156 2650 
1317 1 -0.0225215 -0.0389293 -0.0650369 0.000175 -8.54156 0.230829 2.96032 2650 
1309 1 -0.0194798 -0.0376019 -0.0655341 0.000635 -8.76127 -0.205527 2.5988 2650 
1083 1 -0.0182322 -0.0366218 -0.0658909 0.000635 -8.82645 -0.123777 2.4383 2650 
891 1 -0.0225437 -0.0212433 -0.0650264 0.000175 -6.51199 0.180892 2.24854 2650 
38 1 -0.0229394 -0.0453263 -0.0640394 0.000984 -8.05321 -0.50126 2.9204 2650 
668 1 -0.0250465 -0.03972 -0.0641068 0.000175 -6.74279 0.560927 2.6564 2650 
185 1 -0.0239 -0.0374934 -0.0640541 0.000635 -7.88501 -0.314101 2.93707 2650 
1077 1 -0.0233982 -0.0322513 -0.0642384 0.000635 -7.95691 0.162961 2.91446 2650 
576 1 -0.0235069 -0.0147231 -0.0642008 0.000635 -6.72914 -0.000688621 2.45957 2650 
194 1 -0.0244734 -0.00958755 -0.0643218 0.000175 -8.15322 -0.390828 3.0973 2650 
977 1 -0.0273462 -0.0423574 -0.0626611 0.000635 -7.74929 -0.046308 3.39079 2650 
661 1 -0.0279546 -0.0186134 -0.0628738 0.000175 -6.63346 0.249834 3.00048 2650 
371 1 -0.0317494 -0.0467613 -0.0611901 6.3e-05 -7.11121 -0.763587 3.69193 2650 
20 1 -0.0304901 -0.0431123 -0.0617028 0.000175 -7.82373 -0.168875 3.86076 2650 
936 1 -0.0286581 -0.042749 -0.0616884 0.000984 -7.68812 -0.00466682 3.55322 2650 
657 1 -0.0292659 -0.0328231 -0.0622922 0.000175 -7.70782 0.761431 3.62068 2650 
99 1 -0.0308877 -0.0185797 -0.0614424 0.000175 -5.13878 -0.925025 2.52088 2650 
361 1 -0.0295016 -0.017341 -0.0621383 0.000175 -3.51512 -0.105127 1.57986 2650 
441 1 -0.0316609 -0.0419835 -0.060203 0.000984 -7.74646 -0.142916 4.08792 2650 
105 1 -0.0310006 -0.039666 -0.0605449 0.000984 -7.79812 -0.0592984 4.01102 2650 
748 1 -0.0322342 -0.0369806 -0.0602907 0.000635 -7.70113 0.229991 4.12721 2650 
422 1 -0.0324495 -0.0132191 -0.0601204 0.000635 -6.5137 -0.0979908 3.58352 2650 
197 1 -0.035178 -0.0372534 -0.0591468 0.000175 -7.66903 0.24146 4.54269 2650 
1127 1 -0.0372433 -0.0382661 -0.0578433 0.000175 -7.63358 0.143255 4.89895 2650 
16 1 -0.0357732 -0.0374254 -0.0582428 0.000635 -7.72138 -0.0538619 4.71301 2650 
151 1 -0.0365882 -0.0365703 -0.0577314 0.000635 -7.63384 -0.026955 4.83624 2650 
366 1 -0.0372017 -0.0348719 -0.0578962 0.000175 -5.46283 0.250947 3.56315 2650 
862 1 -0.0371465 -0.0204844 -0.057939 0.000175 -4.95706 0.157494 3.16699 2650 
526 1 -0.0391863 -0.0408562 -0.0565354 0.000175 -4.77694 -0.363608 3.49319 2650 
817 1 -0.037779 -0.0284498 -0.0569804 0.000635 -6.73424 0.821718 4.46752 2650 
1233 1 -0.0377487 -0.0259498 -0.0565832 0.000984 -4.93973 0.0365805 3.34543 2650 
1191 1 -0.0406196 -0.0345985 -0.0555522 0.000175 -4.74298 -0.865768 3.47044 2650 
738 1 -0.0414015 -0.0369306 -0.0539657 0.000984 -6.95471 -0.027791 5.36183 2650 
800 1 -0.0417803 -0.0187583 -0.0546959 0.000175 -5.26878 -0.0739433 4.0334 2650 
1015 1 -0.0407594 -0.00885739 -0.0548894 0.000635 -4.73167 0.278057 3.53661 2650 
104 1 -0.0422159 -0.0396516 -0.0533331 0.000984 -6.79215 -0.166339 5.37942 2650 
825 1 -0.0454511 -0.0520256 -0.0516853 0.000175 -4.57796 0.189009 4.03321 2650 
1001 1 -0.0454137 -0.0139016 -0.0518693 6.3e-05 -4.55551 0.535115 3.99218 2650 
1200 1 -0.0453498 -0.0234269 -0.0506996 0.000984 -5.60908 0.0220159 4.97372 2650 
213 1 -0.0460056 -0.0124677 -0.050578 0.000635 -4.53768 -0.141511 4.15385 2650 
210 1 -0.0470939 -0.0336734 -0.0495597 0.000635 -6.05177 0.0289322 5.75279 2650 
961 1 -0.049043 -0.0215431 -0.0482904 0.000175 -5.34192 -0.130893 5.41789 2650 
26 1 -0.0496804 -0.0290067 -0.0476298 0.000175 -5.92759 0.752632 6.1882 2650 
342 1 -0.0496017 -0.0339038 -0.0465408 0.000984 -5.74675 -0.0378755 6.20209 2650 
1184 1 -0.0508448 -0.0332816 -0.046385 0.000175 -5.87259 0.370776 6.43713 2650 
1176 1 -0.0506498 -0.0283284 -0.0459184 0.000635 -5.82511 0.0422116 6.47 2650 
950 1 -0.0513311 -0.0325343 -0.0451562 0.000635 -5.61913 -0.0489507 6.38217 2650 
889 1 -0.0524665 -0.00116242 -0.044542 0.000175 -2.7766 -0.100529 3.24486 2650 
112 1 -0.0521877 -0.061312 -0.044163 0.000635 -2.87268 0.198248 3.38598 2650 
436 1 -0.0542448 -0.0169873 -0.0423638 0.000175 -4.92335 -0.0773199 6.28281 2650 
1045 1 -0.0541322 -0.0346243 -0.0417567 0.000635 -4.34932 -0.307259 5.63019 2650 
1174 1 -0.0540559 -0.0311147 -0.0418581 0.000635 -4.31679 -0.129937 5.58961 2650 
435 1 -0.054876 -0.0298781 -0.0415381 0.000175 -4.25014 0.0481002 5.60482 2650 
958 1 -0.0553521 -0.0253861 -0.0409022 0.000175 -4.44008 -0.219467 6.00624 2650 
246 1 -0.0561394 -0.0554301 -0.0390187 0.000635 -4.8777 -0.0885038 7.00866 2650 
1057 1 -0.0583425 -0.0196816 -0.0365088 0.000175 -3.67468 0.356637 5.84292 2650 
760 1 -0.0590686 -0.0295294 -0.0353235 0.000175 -4.57492 0.0285043 7.66128 2650 
312 1 -0.0582425 -0.0205742 -0.0358035 0.000635 -4.6611 0.0160206 7.56387 2650 
1103 1 -0.0592795 -0.0493725 -0.0333192 0.000984 -4.40013 0.0010448 7.7012 2650 
368 1 -0.060437 -0.00257431 -0.0328874 0.000175 -2.6344 0.155805 4.80966 2650 
4 1 -0.0605624 -0.0271705 -0.0309637 0.000984 -3.24318 -0.0421131 6.40641 2650 
254 1 -4.64396e-05 -0.0256856 -0.0683673 0.000635 -7.4069 -0.243318 -0.0149457 2650 
869 1 -0.0638823 -0.00428309 -0.025909 6.3e-05 -2.65274 0.319296 6.4792 2650 
546 1 -0.0640433 -0.0493759 -0.0239225 0.000635 -3.17416 0.0108896 8.52405 2650 
864 1 -0.0649194 -0.0445267 -0.0228651 0.000175 -3.0315 -0.00167447 8.62717 2650 
1016 1 -0.0646659 -0.0100831 -0.022188 0.000635 -2.14041 -0.0198563 6.41693 2650 
541 1 -0.0649269 -0.0209717 -0.0202783 0.000984 -2.30864 0.384233 7.41245 2650 
626 1 -0.0658897 -0.0214068 -0.0196668 0.000175 -2.10298 -0.984822 8.1965 2650 
375 1 -0.0653337 -0.04851 -0.0189411 0.000984 -2.588 -0.0151425 8.92427 2650 
1216 1 -0.0662561 -0.0232229 -0.0186118 0.000175 -1.61047 -0.736525 5.80162 2650 
1009 1 -0.0662998 -0.0357059 -0.0166815 0.000635 -2.11599 0.511676 8.38312 2650 
633 1 -0.0668643 -0.0440311 -0.0163281 0.000175 -1.98245 1.49525 8.13162 2650 
552 1 -0.0664204 -0.0160136 -0.0162174 0.000635 -1.34896 -0.189648 5.48818 2650 
290 1 -0.003992 -0.00240888 -0.015983 0.000175 0 -0.011752 0 2650 
928 1 -0.00299518 -0.0014736 -0.016378 0.000175 -0.019317 -0.0146804 0.0150897 2650 
1086 1 -0.0672609 -0.0167796 -0.0146115 0.000175 -0.824397 -0.21656 3.63832 2650 
293 1 -0.00351353 -0.00136396 -0.0147217 0.000175 -0.00853905 -0.00546385 0.00576206 2650 
520 1 -0.00243891 -0.00144952 -0.0153773 0.000635 -0.031832 -0.0173738 0.00335703 2650 
122 1 -0.0674842 -0.00370744 -0.013513 0.000175 -1.14821 0.340001 5.76765 2650 
730 1 -0.00403846 -0.0010279 -0.0135204 0.000175 -0.0109125 -0.00175076 -0.0263489 2650 
262 1 -0.0282098 -0.00378289 -0.0124313 0.000175 -4.14272 -0.0776993 -1.82558 2650 
401 1 -0.0677324 -0.000360608 -0.0122131 0.000175 -1.09281 -0.181394 6.00586 2650 
1187 1 -0.000148415 -0.000747337 -0.0126779 0.000175 0.00655601 -0.0105437 0.0261996 2650 
826 1 -0.001496 -0.00252388 -0.01086 0.000175 0 -0.011752 0 2650 
985 1 -0.012543 -0.00184223 -0.0108956 0.000175 0.0360696 -0.0145409 -0.0487184 2650 
1268 1 -0.0673151 -0.0152907 -0.00979572 0.000984 -0.720717 -0.0660821 4.99274 2650 
843 1 -0.0678489 -0.0169253 -0.00842166 0.000635 -0.755426 0.00712972 6.16769 2650 
245 1 -0.00960099 -0.00248243 -0.00925943 0.000635 0.00947372 -0.0169037 0.0123401 2650 
1257 1 -0.0075764 -0.00322192 -0.00846188 0.000175 0.0364121 -0.0238985 0.0131396 2650 
695 1 -0.002069 -0.00290488 -0.009441 0.000175 0 -0.011752 0 2650 
1079 1 -0.000882003 -0.00256745 -0.00863482 0.000635 -0.0114984 -0.0125722 0.0321544 2650 
23 1 -0.0683375 -0.000413845 -0.00817338 0.000175 -0.610614 -0.0528536 5.002 2650 
529 1 -0.0685712 -0.00761111 -0.00590451 0.000175 -0.495809 -0.31975 5.61024 2650 
404 1 -0.010429 -0.00126388 -0.006279 0.000175 0 -0.011752 0 2650 
100 1 -0.0121828 -0.000632907 -0.00689771 6.3e-05 0.00410365 -0.00625385 0.00822095 2650 
409 1 -0.0129956 -0.00113112 -0.00542927 0.000984 -0.000126743 -0.00549083 0.011301 2650 
1014 1 -0.068225 -0.0595448 -0.0044029 0.000635 -0.542932 -0.0313407 8.19154 2650 
32 1 -0.0688016 -0.0133122 -0.00430865 6.3e-05 -0.33127 -0.252815 5.50303 2650 
559 1 -0.0155214 -0.0016104 -0.00452346 0.000175 0.00830268 -0.0106859 -0.0147358 2650 
933 1 -0.0687882 -6.31747e-05 -0.00451302 6.3e-05 -0.463059 0.00672057 7.04423 2650 
907 1 -0.0683048 -0.0371784 -0.0029172 0.000635 -0.371194 -0.223763 8.88945 2650 
890 1 -0.00796917 -0.00253868 -0.00320113 0.000175 -0.00133426 -0.0315104 0.0151009 2650 
47 1 -0.00868625 -0.00171406 -0.00326284 0.000635 0.00953491 -0.00215823 0.0267824 2650 
377 1 -0.0680066 -0.0351671 -0.001367 0.000984 -0.173661 -0.197761 8.982 2650 
710 1 -0.00958793 -0.000705234 -0.00175082 0.000635 1.43133e-05 -0.000352035 0.00380889 2650 
1027 1 -0.0156724 -0.00213994 -0.000616312 0.000175 0.00944734 -0.00271906 -0.00513913 2650 
319 1 -0.0133117 -0.00164687 -0.00029414 0.000635 0.00137296 -0.00284352 0.0188028 2650 
484 1 -0.0108244 -0.0011735 -0.000472654 0.000635 -0.00120881 -0.0132824 0.0194643 2650 
41 1 -0.0683667 -0.0617319 0.000302146 0.000635 0.0697631 -0.0606844 8.3202 2650 
643 1 -0.0683522 -0.0117192 0.000615794 0.000635 -0.0869488 -0.990868 6.25599 2650 
857 1 -0.0125447 -0.00219341 0.000993652 0.000175 0.00654834 -0.0274458 0.00967286 2650 
76 1 -0.0114838 -0.00144609 0.000638206 0.000635 0.00760478 -0.00806003 0.0239623 2650 
770 1 -0.010248 -0.00149688 0.000278 6.3e-05 0 -0.011752 0 2650 
230 1 -0.0167076 -0.000212542 0.0007872 0.000175 0.00329519 -0.00274885 0.0320848 2650 
581 1 -0.0683321 -0.0395974 0.00215595 0.000635 0.296949 -0.244065 9.13387 2650 
1273 1 -0.0109822 -0.000657834 0.00223614 0.000635 0.0103581 -0.00976524 0.0279094 2650 
1178 1 -0.000581611 -0.00020609 0.00132092 0.000635 0.0146946 -0.0115664 0.0516672 2650 
982 1 -0.0144221 -0.00331801 0.00259573 0.000635 -0.248595 -0.0273977 0.0407557 2650 
1061 1 -0.0123895 -0.00149755 0.00309584 0.000175 -0.00166711 -0.0222324 0.0299855 2650 
1303 1 -0.0157675 -0.0011481 0.00299282 0.000635 0.00343273 -0.00793494 0.0048622 2650 
444 1 -0.00786504 -0.00053339 0.00341021 0.000984 -0.0120967 0.00585355 0.0699458 2650 
923 1 -0.0110309 -0.00249604 0.00367696 0.000175 -0.0576293 -0.0132797 0.0525947 2650 
1183 1 -0.005753 -0.00322388 0.004546 0.000175 0 -0.011752 0 2650 
700 1 -0.01441 -0.00226888 0.004411 0.000175 0 -0.011752 0 2650 
828 1 -0.0145525 -0.000696265 0.00363018 0.000175 -0.025966 -0.0250481 -0.00421609 2650 
376 1 -0.0143883 -0.00441761 0.00583296 0.000984 0.279155 -0.774478 -0.00463863 2650 
1130 1 -0.009153 -0.00185288 0.005561 0.000175 0 -0.011752 0 2650 
397 1 -0.004747 -0.00235088 0.005292 0.000175 0 -0.011752 0 2650 
416 1 -0.0125203 -0.000775754 0.00486725 0.000635 0.00426689 -0.0155713 -0.00013064 2650 
646 1 -0.00644431 -0.000705021 0.00535769 0.000635 0.0317074 -0.00932188 -0.0318172 2650 
600 1 -0.0685233 -0.0126602 0.00632853 0.000175 0.485077 -0.272521 5.98573 2650 
1 1 -0.0676568 -0.00282563 0.00698045 0.000984 0.736839 0.102943 7.28643 2650 
834 1 -0.003213 -0.00289288 0.00673 6.3e-05 0 -0.011752 0 2650 
1258 1 -0.00402 -0.00227788 0.006285 0.000175 0 -0.011752 0 2650 
699 1 -0.003435 -0.00211288 0.006336 0.000175 0 -0.011752 0 2650 
340 1 -0.0686625 -6.32529e-05 0.00613959 6.3e-05 0.656421 -0.00244724 7.20677 2650 
356 1 -0.00670681 -0.000152174 0.00662171 0.000635 0.038542 0.0387977 -0.024611 2650 
1285 1 -0.0683375 -0.00548927 0.00811843 0.000175 0.641361 0.198682 5.59838 2650 
528 1 -0.0684162 -0.00428714 0.00746524 0.000175 0.620157 -0.0944842 5.70577 2650 
1158 1 -0.000161 -0.000606883 0.008128 0.000175 0 -0.011752 0 2650 
381 1 -0.0677169 -0.0294731 0.0093986 0.000635 0.882562 -0.776905 6.3042 2650 
94 1 -0.0139672 -0.00312648 0.00895147 0.000175 0.00161913 -0.0375095 -0.00416655 2650 
663 1 -0.005896 -0.00193788 0.008831 0.000175 0 -0.011752 0 2650 
919 1 -0.005478 -0.00170488 0.008424 0.000175 0 -0.011752 0 2650 
966 1 -0.004 -0.00184588 0.009261 6.3e-05 0 -0.011752 0 2650 
983 1 -0.00273545 -0.00126032 0.00841443 0.000635 -0.00630556 -0.0116724 -0.00633157 2650 
567 1 -0.001416 -0.00104288 0.008428 0.000175 0 -0.011752 0 2650 
89 1 -0.00015791 -0.000115544 0.00913107 0.000175 -0.000422946 -0.00475265 -0.00205368 2650 
406 1 -0.00288862 -0.00334715 0.0106653 6.3e-05 -0.0782115 -0.0454153 0.341015 2650 
486 1 -0.00184138 -0.0024153 0.00970623 0.000635 -0.00133871 -0.0105077 0.00262835 2650 
71 1 -0.00594493 -0.00215677 0.0107869 0.000984 0.0351326 -0.0110298 0.0161518 2650 
91 1 -0.00514435 -0.00225934 0.00995139 0.000175 0.0120387 -0.0131387 -0.0100959 2650 
119 1 -0.003224 -0.00130588 0.009968 0.000635 0 -0.011752 0 2650 
250 1 -0.0115045 -0.000555709 0.0104662 0.000635 -0.00149738 -0.00993465 -0.000106233 2650 
839 1 -0.0670332 -0.0319128 0.0115529 0.000984 1.54312 -0.0347978 9.12317 2650 
369 1 -0.0678097 -0.0300112 0.0117746 0.000175 1.51063 1.28588 8.65687 2650 
1251 1 -0.001546 -0.00300788 0.010836 0.000175 0 -0.011752 0 2650 
696 1 -0.00342 -0.00200788 0.01091 0.000175 0 -0.011752 0 2650 
1206 1 -0.003358 -0.000948883 0.011714 0.000635 0 -0.011752 0 2650 
1293 1 -0.002756 -0.000396883 0.011457 0.000175 0 -0.011752 0 2650 
503 1 -0.010169 -0.00302088 0.013181 0.000175 0 -0.011752 0 2650 
1306 1 -0.009429 -0.00240488 0.012881 0.000635 0 -0.011752 0 2650 
1078 1 -0.003931 -0.00276488 0.01226 0.000635 0 -0.011752 0 2650 
1177 1 -0.002847 -0.000163883 0.012609 0.000635 0 -0.011752 0 2650 
187 1 -0.005421 -0.00281988 0.013516 0.000635 0 -0.011752 0 2650 
249 1 -0.003145 -0.00286588 0.013922 0.000635 0 -0.011752 0 2650 
935 1 -0.0675613 -0.000123841 0.0137019 6.3e-05 1.03149 -0.0379356 5.07211 2650 
821 1 -0.0671474 -0.00407914 0.0151002 0.000175 1.05623 0.508571 4.88652 2650 
232 1 -0.00682525 -0.00340313 0.0153318 0.000175 -0.136968 -0.0805413 0.196901 2650 
411 1 -0.00385199 -0.000774377 0.015501 0.000984 -0.00213308 -0.0131188 0.00123373 2650 
400 1 -0.0666358 -0.00902646 0.0172291 0.000175 1.74096 0.30788 6.60877 2650 
18 1 -0.0665819 -0.00933462 0.017438 0.000175 1.61727 -0.301839 6.17066 2650 
970 1 -0.0654382 -0.0592265 0.0185577 0.000984 2.33912 -0.0324188 8.21033 2650 
306 1 -0.0664067 -0.0493496 0.0185222 6.3e-05 2.97179 0.735774 10.6449 2650 
585 1 -0.0656885 -0.0289195 0.0189455 0.000635 1.74751 0.349757 6.06725 2650 
934 1 -0.0655935 -0.00917877 0.0212136 6.3e-05 2.17563 -0.0959249 6.69968 2650 
1236 1 -0.0644787 -0.0284924 0.0227268 0.000635 2.22533 -0.205217 6.37654 2650 
782 1 -0.0643917 -0.0160495 0.0229849 0.000635 2.69898 0.0294826 7.45275 2650 
196 1 -0.0642829 -0.0170817 0.024598 0.000175 2.91968 -0.31576 7.62788 2650 
163 1 -0.0637468 -0.0277843 0.025945 0.000175 2.99519 -0.157318 7.33186 2650 
8 1 -0.0629192 -0.0320605 0.0267441 0.000635 3.41085 -0.220471 7.95385 2650 
339 1 -0.0632213 -0.0113963 0.0274872 6.3e-05 2.95144 -0.003471 6.77228 2650 
152 1 -0.0624161 -0.0326219 0.0278946 0.000635 3.56699 -0.104651 7.99451 2650 
794 1 -0.062323 -0.0509642 0.0290781 0.000175 2.99117 0.0257493 6.66059 2650 
260 1 -0.0615682 -0.0215699 0.0307604 0.000175 1.84747 -0.690958 3.60384 2650 
995 1 -0.0613429 -0.00920473 0.0312041 0.000175 1.56402 -0.149218 3.12869 2650 
129 1 -0.0135047 -0.00421342 0.0344234 0.000175 -2.08875 -0.106286 5.32422 2650 
208 1 -0.0552698 -0.0308368 0.0396505 0.000984 5.03211 0.0799639 7.04732 2650 
653 1 -0.0548379 -0.0461932 0.0408316 0.000635 4.79082 0.0223117 6.43441 2650 
940 1 -0.0551395 -0.0371874 0.040418 0.000635 4.8612 -0.153065 6.65194 2650 
718 1 -0.0543383 -0.0318955 0.0414885 0.000635 5.10119 0.0514128 6.70952 2650 
667 1 -0.0550769 -0.0205949 0.0412757 0.000175 4.42871 -0.138937 5.91856 2650 
266 1 -0.0553593 -0.0188072 0.0408964 0.000175 3.70159 -0.109494 4.98909 2650 
717 1 -0.0546389 -0.0162329 0.0410958 0.000635 4.82786 0.635587 6.34742 2650 
833 1 -0.0521331 -0.00520117 0.0449337 0.000175 4.09796 -0.45995 4.74312 2650 
756 1 -0.0498536 -0.0228175 0.047452 0.000175 5.09691 0.10021 5.35423 2650 
407 1 -0.0489678 -0.0223755 0.0485255 6.3e-05 4.63475 -0.153889 4.70989 2650 
2 1 -0.0461298 -0.0336652 0.049985 0.000984 6.53211 -0.238245 5.99214 2650 
918 1 -0.0455638 -0.0348244 0.0509655 0.000635 6.65669 -0.215849 5.94841 2650 
437 1 -0.0442888 -0.00206539 0.0526785 0.000175 4.74848 0.101144 3.97458 2650 
335 1 -0.0433134 -0.0130227 0.0534832 0.000175 4.62809 -0.476902 3.8643 2650 
1034 1 -0.0437279 -0.00392023 0.0532898 6.3e-05 4.98599 -0.0238942 4.1118 2650 
669 1 -0.0425756 -0.0175987 0.0541917 6.3e-05 2.6776 -0.123901 2.24943 2650 
1136 1 -0.0382166 -0.0485064 0.0562108 0.000984 7.20252 -0.0207987 4.9354 2650 
372 1 -0.0396525 -0.00500112 0.0563711 6.3e-05 5.19256 -0.351509 3.71501 2650 
1307 1 -0.037108 -0.0479718 0.0573511 0.000635 7.42164 -0.0232068 4.81144 2650 
737 1 -0.0378453 -0.00530877 0.0576132 6.3e-05 5.50176 -0.493962 3.54038 2650 
307 1 -0.0355508 -0.0561969 0.0579744 0.000984 7.56236 -0.0524415 4.58166 2650 
914 1 -0.0327636 -0.0312046 0.0600047 0.000635 7.19165 -0.0765035 3.92181 2650 
892 1 -0.0355091 -0.0265156 0.0589382 0.000175 6.67684 0.197975 3.98314 2650 
1092 1 -0.0349065 -0.0259982 0.0593105 0.000175 6.78452 0.166572 3.91569 2650 
127 1 -0.0343349 -0.0102872 0.0596485 0.000175 5.87257 -0.463896 3.37465 2650 
965 1 -0.0328197 -0.0274032 0.0604952 0.000175 6.45987 -0.430177 3.47927 2650 
226 1 -0.0327515 -0.0186916 0.0605317 0.000175 6.56771 0.0905881 3.55806 2650 
671 1 -0.0321061 -0.00743436 0.0610031 6.3e-05 5.96224 -0.298946 3.12084 2650 
324 1 -0.0322067 -0.000470572 0.0608235 0.000175 5.27192 -0.0642896 2.79201 2650 
13 1 -0.0297917 -0.0307741 0.0615343 0.000635 7.37208 0.00128887 3.58184 2650 
1179 1 -0.0299561 -0.027396 0.061454 0.000635 7.35251 -0.011584 3.57984 2650 
836 1 -0.0295512 -0.0242057 0.0622811 6.3e-05 3.56369 -0.308914 1.65207 2650 
636 1 -0.0268482 -0.0307756 0.0634937 6.3e-05 4.26273 -0.602168 1.75613 2650 
1151 1 -0.0245856 -0.0270705 0.0642833 0.000175 7.28917 -0.14756 2.78998 2650 
124 1 -0.0258941 -0.0247098 0.063768 0.000175 6.26581 -0.0362624 2.55647 2650 
1312 1 -0.0204828 -0.0292217 0.0652256 0.000635 7.77681 -0.123429 2.42873 2650 
622 1 -0.018395 -0.0206085 0.065849 0.000635 5.7051 0.127202 1.59578 2650 
413 1 -0.0199727 -0.0179655 0.0653886 0.000635 6.89606 0.10831 2.10802 2650 
964 1 -0.0220788 -0.0158485 0.0651912 0.000175 6.58124 1.01345 2.23031 2650 
1287 1 -0.0217521 -0.0104209 0.0653004 0.000175 6.71143 -0.417765 2.21063 2650 
1274 1 -0.015513 -0.0264369 0.0665822 0.000635 7.92805 0.0439923 1.85634 2650 
627 1 -0.0187355 -0.0194137 0.066229 0.000175 6.28337 0.101944 1.80259 2650 
551 1 -0.0142875 -0.0169833 0.0668599 0.000635 7.21611 0.0884293 1.53683 2650 
1041 1 -0.0163446 -0.00922719 0.0663823 0.000635 6.90879 0.0478507 1.69929 2650 
95 1 -0.0157694 -0.00906166 0.0669831 0.000175 7.12196 0.429913 1.86549 2650 
157 1 -0.00852776 -0.0417123 0.0682963 0.000175 7.32199 -0.347559 0.904728 2650 
25 1 -0.00942257 -0.0315058 0.0681772 0.000175 7.60007 0.597334 1.05241 2650 
158 1 -0.0096153 -0.0305863 0.0681495 0.000175 7.35871 -0.489117 1.03413 2650 
146 1 -0.00382555 -0.028457 0.0682515 0.000635 7.75577 -0.0855904 0.425264 2650 
446 1 -0.0087242 -0.0266487 0.0678023 0.000635 7.79393 0.358591 1.00252 2650 
427 1 -0.0115705 -0.0245781 0.0678454 0.000175 5.19031 1.59515 0.92143 2650 
212 1 -0.00119489 -0.0210614 0.0683242 0.000635 7.47998 -0.13532 -0.0222941 2650 
527 1 -0.0134585 -0.0129674 0.0675009 0.000175 4.42168 -0.0377797 0.894486 2650 
1289 1 -0.0144755 -0.0108202 0.06728 0.000175 7.68698 -0.296707 1.62903 2650 
795 1 -0.000859836 -0.0232254 0.0688124 0.000175 7.31852 -0.582084 0.0530628 2650 
1087 1 -0.000836914 -0.0200956 0.0688008 0.000175 7.41397 0.1261 -0.0327026 2650 
702 1 -0.00197527 -0.0190074 0.068858 6.3e-05 6.18704 -0.390917 0.0878051 2650 
294 1 -0.0069795 -0.0127086 0.068464 0.000175 5.88287 -0.214731 0.396052 2650 
926 1 -0.0067801 -0.00974896 0.0684865 0.000175 5.41874 -0.575108 0.781431 2650 
199 1 -0.00729018 -0.00844832 0.06842 0.000175 4.87075 0.01918 0.354295 2650 
55 1 -0.00661452 -0.00473361 0.0684997 0.000175 6.68064 0.51249 0.66971 2650 
165 1 -0.000228934 0.00286552 -0.0161544 0.000175 0.0286615 -0.0257133 0.023033 2650 
348 1 -0.00321379 0.00868559 -0.0158017 0.000635 -0.027411 -0.000920313 -0.00591899 2650 
419 1 -0.00225708 0.0107108 -0.0159852 0.000635 -0.0291094 0.0344015 0.00595775 2650 
1139 1 -0.00112015 0.0117616 -0.0157779 0.000635 0.00890459 0.0132991 -3.31982e-05 2650 
1030 1 -0.00097019 0.0142441 -0.015944 0.000175 0.011325 0.0273115 0.00522036 2650 
691 1 -0.00174139 0.014483 -0.0164481 0.000175 -0.00426261 0.0253348 -0.00827954 2650 
313 1 -0.00102821 0.0171454 -0.0161799 0.000635 -0.00274908 0.0403995 0.00210658 2650 
572 1 -0.00370039 0.0480564 -0.0160187 6.3e-05 -0.026748 0.0803132 -0.0560863 2650 
474 1 -0.00465844 0.0055795 -0.0150514 0.000984 0.000665082 0.00417882 0.000940093 2650 
117 1 -0.00588364 0.00666254 -0.015061 0.000635 0.0109263 0.0232717 -0.00897714 2650 
533 1 -0.00341251 0.00681137 -0.0148071 0.000175 0.001725 0.0252157 0.00480539 2650 
1310 1 -0.00481876 0.00801823 -0.0154141 0.000635 0.0104579 0.00696802 0.00813772 2650 
487 1 -0.00269119 0.00943522 -0.014579 0.000635 -0.0182791 0.00918319 -0.0047956 2650 
395 1 -0.00610074 0.0098351 -0.0153312 0.000175 -0.0737702 0.0384834 0.0225132 2650 
675 1 -0.00292825 0.0120208 -0.0149909 0.000635 0.0112122 0.0274627 -0.00386522 2650 
824 1 -0.00639113 0.0155819 -0.014453 0.000175 -0.000554017 0.0181768 0.00467615 2650 
408 1 -0.00515897 0.0158997 -0.014565 0.000984 0.000778953 0.0207322 0.00188188 2650 
771 1 -0.00123026 0.0174321 -0.0145487 0.000984 -0.00796867 0.0269648 0.00760193 2650 
784 1 -0.00513388 0.0181279 -0.0150251 0.000635 0.00261427 0.026908 -0.00650893 2650 
373 1 -0.0071125 0.020447 -0.0153645 6.3e-05 -0.00422078 0.0373853 -0.00294491 2650 
315 1 -0.00286181 0.0384909 -0.0149135 0.000635 0.00602022 0.0560438 0.0019191 2650 
680 1 -0.000224851 0.0485914 -0.0155139 0.000635 0.0137834 0.0894966 0.00416808 2650 
755 1 -0.0061709 0.0492517 -0.015528 0.000175 -0.0668814 0.0888256 0.0288811 2650 
1044 1 -0.00568442 0.0594307 -0.0155941 0.000635 -0.0615993 0.104679 0.0007883 2650 
1278 1 -0.00547138 0.000230929 -0.013918 0.000635 -0.000241225 -0.0140358 0.00651602 2650 
1286 1 -0.00384856 0.000142595 -0.0142922 0.000175 -0.0149297 -0.0186019 -0.0209611 2650 
1039 1 -0.00508494 0.00679377 -0.0138303 0.000635 0.00162938 0.00967473 0.00723244 2650 
1005 1 -0.00407566 0.0121839 -0.0142369 0.000635 0.0181257 0.026725 0.00329256 2650 
1189 1 -0.0097452 0.0144505 -0.0133756 0.000175 6.90105e-05 0.00649917 -0.0122468 2650 
17 1 -0.00200887 0.0150114 -0.0136053 0.000635 -0.0137184 0.00781224 -0.0116573 2650 
872 1 -0.00711219 0.0165742 -0.0143564 0.000984 -0.00120448 0.0192909 0.000553858 2650 
1050 1 -0.00330565 0.0155742 -0.0138131 0.000635 -0.0030593 0.0113998 -0.00615491 2650 
595 1 -0.00185584 0.016594 -0.0134501 0.000175 -0.0340172 0.0137037 0.00896531 2650 
428 1 -0.00817597 0.0177078 -0.0136495 0.000175 -0.000384293 0.0296681 0.00365645 2650 
880 1 -0.00510033 0.0194275 -0.0143085 0.000635 -0.00363808 0.0252653 0.000397265 2650 
1073 1 -0.00852 0.0247838 -0.013625 0.000635 0.0138683 0.0321747 -4.51351e-05 2650 
1122 1 -0.00292007 0.0347594 -0.0132955 0.000175 0.00492764 0.086685 -0.000120932 2650 
793 1 -0.00859265 0.0403807 -0.0135999 0.000175 -0.0570596 0.0756903 0.035203 2650 
77 1 -0.00203672 0.0555629 -0.013768 0.000635 -0.0336141 0.0949105 -0.0197874 2650 
1065 1 -0.0108187 0.00700385 -0.0126599 6.3e-05 0.00512273 0.00268936 0.0073814 2650 
1292 1 -0.0100094 0.0106589 -0.0122263 0.000175 -0.0393032 0.0318366 0.0103884 2650 
310 1 -0.00554974 0.0134102 -0.0129873 0.000984 0.00351546 0.0176125 -0.0238609 2650 
607 1 -0.0027064 0.013786 -0.0121502 0.000984 -0.00696014 0.0405184 0.0184269 2650 
844 1 -0.00468409 0.0177186 -0.0122166 0.000635 -0.00346295 0.0246184 0.0115598 2650 
855 1 -0.0085999 0.0181919 -0.0124362 0.000175 0.0622261 0.00967645 -0.0336946 2650 
177 1 -0.0103142 0.0207368 -0.0127049 0.000635 0.00109563 0.0301991 -0.0111643 2650 
1296 1 -0.0103118 0.0219252 -0.0120098 6.3e-05 -0.0323648 0.0344322 0.0255867 2650 
492 1 -0.00914392 0.0255207 -0.0129282 0.000175 0.00664413 0.0336774 0.00376488 2650 
396 1 -0.00526829 0.0332078 -0.0129236 0.000175 -0.00113676 0.0588776 0.0100325 2650 
1225 1 -0.0103682 0.000409044 -0.0113386 0.000175 0.00899803 -0.00139947 -0.0060161 2650 
1069 1 -0.00465869 0.00184147 -0.0112187 0.000984 0.00763976 0.00540033 0.00483171 2650 
859 1 -0.011836 0.00359397 -0.0111058 0.000175 0.00575666 -0.0120308 -0.00417212 2650 
548 1 -0.00808849 0.00369176 -0.0119069 0.000635 0.0143247 0.000476519 -0.00186292 2650 
727 1 -0.011638 0.00516112 -0.011173 0.000175 0 -0.011752 0 2650 
85 1 -0.0103689 0.00511076 -0.0108221 0.000635 0.0055464 -0.00602068 -0.0111466 2650 
57 1 -0.012547 0.00751512 -0.01103 0.000175 0 -0.011752 0 2650 
405 1 -0.009473 0.00883012 -0.011251 6.3e-05 0 -0.011752 0 2650 
426 1 -0.0119698 0.0114861 -0.0116753 0.000175 -0.0110196 0.00443597 -0.00698703 2650 
1243 1 -0.00557282 0.0113308 -0.0114158 0.000635 0.0104033 0.00908662 0.00243777 2650 
575 1 -0.00351135 0.0111468 -0.0118184 0.000984 -0.00799582 0.03138 0.0143029 2650 
642 1 -0.0118766 0.0121111 -0.0111256 0.000635 -0.0165027 0.00193637 0.00558481 2650 
905 1 -0.0105424 0.0128954 -0.0117179 0.000984 -0.0216901 0.013027 -0.00419683 2650 
868 1 -0.00117633 0.0120235 -0.011451 6.3e-05 -0.0121823 0.00153366 -0.000714128 2650 
63 1 -0.0111622 0.0142727 -0.0111684 0.000175 -0.00349458 0.0157914 0.0106423 2650 
217 1 -0.00167639 0.0154436 -0.0113903 0.000635 0.00277725 0.0290896 0.0128731 2650 
1165 1 -0.00496421 0.0165493 -0.0112826 6.3e-05 6.36838e-05 0.0159872 0.00158631 2650 
481 1 -0.002996 0.0181059 -0.0112941 0.000635 0.00726956 0.0158331 0.00739415 2650 
866 1 -0.0113117 0.0190634 -0.0118674 0.000175 -0.0365816 0.0227934 0.0113868 2650 
43 1 -0.010611 0.019915 -0.0110856 0.000635 -0.0100394 0.0382684 0.0138004 2650 
1169 1 -0.0113468 0.0251613 -0.0111997 0.000984 -0.00461599 0.0300567 0.005528 2650 
206 1 -0.00910698 0.030193 -0.0118257 0.000984 0.008054 0.0518389 0.00967878 2650 
1172 1 -0.0116937 5.56699e-05 -0.00972033 0.000635 0.00256161 -0.00497894 0.00642154 2650 
852 1 -0.00350167 0.000212366 -0.00968417 0.000635 -0.0274117 0.000971985 0.0181771 2650 
1249 1 -0.0130057 0.00155769 -0.0103954 0.000175 -0.0301053 -0.00395183 0.0347278 2650 
505 1 -0.002044 0.00405912 -0.010315 6.3e-05 0 -0.011752 0 2650 
472 1 -0.0108366 0.00710158 -0.0100395 6.3e-05 -0.0134947 -0.0101971 -0.00813417 2650 
927 1 -0.00954286 0.00598084 -0.0104081 0.000175 -0.0436354 -0.00111711 0.0153346 2650 
571 1 -0.008585 0.00743412 -0.010244 6.3e-05 0 -0.011752 0 2650 
1128 1 -0.01255 0.00864312 -0.009723 0.000175 0 -0.011752 0 2650 
60 1 -0.000136738 0.00842182 -0.010242 0.000175 -0.0462767 0.0105163 0.0141733 2650 
721 1 -1.73802e-05 0.0101208 -0.0106472 0.000635 -0.0456082 0.0131637 0.00582626 2650 
1094 1 -0.00640106 0.0128054 -0.0101378 0.000175 -0.0122088 -0.0145181 0.000761558 2650 
478 1 -0.0121779 0.0132306 -0.0105315 0.000635 0.0022121 0.0142578 -0.00180885 2650 
443 1 -0.0102885 0.015293 -0.0104606 0.000984 -0.0121147 0.0150666 0.00663429 2650 
579 1 -0.00493939 0.0155897 -0.0105282 0.000635 0.0148288 0.0208727 0.0157624 2650 
1033 1 -0.0133452 0.0181797 -0.0104112 6.3e-05 -0.00688716 0.022459 -0.00441168 2650 
1003 1 -0.0100377 0.0224471 -0.00990396 0.000984 0.00812445 0.0232726 0.00952521 2650 
837 1 -0.00531392 0.0232612 -0.0106087 0.000984 -0.000843398 0.0289712 -0.0351053 2650 
504 1 -0.0122829 0.0251057 -0.0107238 6.3e-05 0.000934674 0.0532997 0.0317108 2650 
910 1 -0.00562332 0.0304424 -0.010289 0.000635 0.0346477 0.0381526 -0.0112447 2650 
818 1 -0.0130471 0.0347909 -0.00979716 0.000635 -0.0368004 0.0505685 0.0428598 2650 
1135 1 -0.00712347 0.0459157 -0.0106057 0.000984 0.00804562 0.0749314 -0.0611247 2650 
87 1 -0.0135285 0.0557174 -0.00982794 0.000175 -0.0665946 0.14415 0.0750209 2650 
418 1 -0.00554455 0.0733943 -0.0099882 0.000635 0.043732 0.130109 -0.0330344 2650 
992 1 -0.00340393 0.000578983 -0.00895122 0.000175 -0.00148803 -2.36927e-05 0.0219614 2650 
1059 1 -0.0123276 0.00126929 -0.0089752 0.000175 0.00295844 -0.000728134 0.00873615 2650 