LIGGGHTS (Version LIGGGHTS-PUBLIC 3.8.0, compiled 2022-11-07-16:55:38 by serperd1, git commit 86544c3f1215bc9744d7929e3eacf53ba086af9e)
units si #
dimension 3 #
newton off #
boundary f f f #
atom_style sphere #
pair_style gran model hertz tangential history #
communicate single vel yes #
region outer_basket cylinder y 0 0 0.15 -0.15 0.15 #
create_box 3 outer_basket #
Created orthogonal box = (-0.15 -0.15 -0.15) to (0.15 0.15 0.15)
  2 by 4 by 5 MPI processor grid
variable my_omega equal 157.0796 #
fix cone_mesh all mesh/surface file cone.stl type 3 scale 1 #
fix rotating_wall_1 all move/mesh mesh cone_mesh rotate/variable origin 0 0 0 axis 0 1 0 omega v_my_omega #
fix filter_mesh_walls all mesh/surface file dem_walls_45X_14micronpore_mod_mesh.stl type 2 scale 1e-3 curvature 1e-5 #
fix rotating_wall_2 all move/mesh mesh filter_mesh_walls rotate/variable origin 0 0 0 axis 0 1 0 omega v_my_omega #
fix inlet_cyl_wall_mesh all mesh/surface file in_cyl.stl type 3 scale 1 #
fix top_cyl_wall_mesh all mesh/surface file top_cyl.stl type 3 scale 1 #
fix rotating_wall_4 all move/mesh mesh top_cyl_wall_mesh rotate/variable origin 0 0 0 axis 0 1 0 omega v_my_omega #
fix bot_cyl_wall_mesh all mesh/surface file bot_cyl.stl type 3 scale 1 #
fix rotating_wall_5 all move/mesh mesh bot_cyl_wall_mesh rotate/variable origin 0 0 0 axis 0 1 0 omega v_my_omega #
fix bot_disk_wall_mesh all mesh/surface file bottom_disk.stl type 3 scale 1 #
fix rotating_wall_6 all move/mesh mesh bot_disk_wall_mesh rotate/variable origin 0 0 0 axis 0 1 0 omega v_my_omega #
fix top_disk_wall_mesh all mesh/surface file top_disk.stl type 3 scale 1 #
fix rotating_wall_7 all move/mesh mesh top_disk_wall_mesh rotate/variable origin 0 0 0 axis 0 1 0 omega v_my_omega #
fix GMSH_mesh_walls all wall/gran model hertz tangential history mesh n_meshes 7 meshes cone_mesh filter_mesh_walls top_cyl_wall_mesh bot_cyl_wall_mesh bot_disk_wall_mesh inlet_cyl_wall_mesh top_disk_wall_mesh #
fix Young_mod all property/global youngsModulus peratomtype 375000000 46000000 1000000000 #
fix Poisson_rat all property/global poissonsRatio peratomtype 0.32 0.42 0.29 #
fix Coeff_rest all property/global coefficientRestitution peratomtypepair 3 0.15 0.32 0.475 0.32 0.49 0.645 0.475 0.645 0.8 #
fix Coeff_fric all property/global coefficientFriction peratomtypepair 3 0.04 0.145 0.12 0.145 0.25 0.225 0.12 0.225 0.2 #

neighbor 0.00039366 bin #
neigh_modify delay 0 one 100000 page 5000000 #
fix r_0to10p all particletemplate/sphere 12345787 atom_type 1 density constant 2650 radius constant 6.3e-05 #
fix r_10to50p all particletemplate/sphere 15485863 atom_type 1 density constant 2650 radius constant 0.0001746 #
fix r_50to90p all particletemplate/sphere 15485867 atom_type 1 density constant 2650 radius constant 0.00063495 #
fix r_90to100p all particletemplate/sphere 32452843 atom_type 1 density constant 2650 radius constant 0.00098415 #
fix prob_par all particledistribution/discrete 32452867 4 r_0to10p 0.1 r_10to50p 0.4 r_50to90p 0.4 r_90to100p 0.1 #
pair_coeff * * #
timestep 4.8591e-08 #

fix nve_group all nve/sphere #
fix grav_fix all gravity 6.1081 vector 0.017 -0.0033 0 -1 0 #
fix cent_fix all centrifugal 157.0796 0.017 -0.0033 0.069 #

variable step equal step #
variable mycount equal count(all) #
fix print_amount_of_atoms all print 25 "${step} ${mycount}" file numatoms.txt screen no #
run 0 #
Setting up run at Fri Nov 25 11:03:38 2022

Memory usage per processor = 1079.82 Mbytes
    Step    Atoms         KinEng            CPU 
       0        0              0              0 
Loop time of 5.71365e-05 on 40 procs for 0 steps with 0 atoms, finish time Fri Nov 25 11:03:39 2022


Pair  time (%) = 0 (0)
Neigh time (%) = 0 (0)
Comm  time (%) = 0 (0)
Outpt time (%) = 0 (0)
Other time (%) = 5.71365e-05 (100)

Nlocal:    0 ave 0 max 0 min
Histogram: 40 0 0 0 0 0 0 0 0 0
Nghost:    0 ave 0 max 0 min
Histogram: 40 0 0 0 0 0 0 0 0 0
Neighs:    0 ave 0 max 0 min
Histogram: 40 0 0 0 0 0 0 0 0 0

Total # of neighbors = 0
Neighbor list builds = 0
Dangerous builds = 0
run 1 #
Setting up run at Fri Nov 25 11:03:39 2022

Memory usage per processor = 1079.82 Mbytes
    Step    Atoms         KinEng            CPU 
       0        0              0              0 
       1        0              0    0.013971196 
Loop time of 0.013995 on 40 procs for 1 steps with 0 atoms, finish time Fri Nov 25 11:03:39 2022


Pair  time (%) = 4.41825e-06 (0.0315703)
Neigh time (%) = 0 (0)
Comm  time (%) = 0.000255879 (1.82837)
Outpt time (%) = 0.000337226 (2.40962)
Other time (%) = 0.0133974 (95.7304)

Nlocal:    0 ave 0 max 0 min
Histogram: 40 0 0 0 0 0 0 0 0 0
Nghost:    0 ave 0 max 0 min
Histogram: 40 0 0 0 0 0 0 0 0 0
Neighs:    0 ave 0 max 0 min
Histogram: 40 0 0 0 0 0 0 0 0 0

Total # of neighbors = 0
Neighbor list builds = 0
Dangerous builds = 0
read_dump dump.atom_info_1 1 x y z radius vx vy vz box no add yes replace no #
  orthogonal box = (-0.15 -0.15 -0.15) to (0.15 0.15 0.15)
  0 atoms before read
  1331 atoms in snapshot
  0 atoms purged
  0 atoms replaced
  0 atoms trimmed
  1331 atoms added
  1331 atoms after read
set atom * type 1 density 2650 vy -0.011752 #
  1331 settings made for type
  1331 settings made for density
  1331 settings made for vy
write_dump all mesh/stl filter_mesh_scaled*.stl filter_mesh_walls #
run 1 #
Setting up run at Fri Nov 25 11:03:40 2022

Memory usage per processor = 1084.21 Mbytes
    Step    Atoms         KinEng            CPU 
       1     1331  2.0446559e-07              0 
       2     1331  2.5460957e-07    0.013405504 
Loop time of 0.0134251 on 40 procs for 1 steps with 1331 atoms, finish time Fri Nov 25 11:03:40 2022


Pair  time (%) = 4.54525e-06 (0.0338564)
Neigh time (%) = 0 (0)
Comm  time (%) = 6.59168e-06 (0.0490997)
Outpt time (%) = 0.000329101 (2.45139)
Other time (%) = 0.0130848 (97.4657)

Nlocal:    33.275 ave 555 max 0 min
Histogram: 36 0 2 0 0 0 0 0 0 2
Nghost:    13.575 ave 173 max 0 min
Histogram: 36 0 0 0 0 1 1 0 0 2
Neighs:    10.175 ave 168 max 0 min
Histogram: 36 0 2 0 0 0 0 0 0 2

Total # of neighbors = 407
Ave neighs/atom = 0.305785
Neighbor list builds = 0
Dangerous builds = 0
write_dump all custom dump.atom_info_ac_* id type x y z radius vx vy vz density #
run 205798
Setting up run at Fri Nov 25 11:03:40 2022

Memory usage per processor = 1084.21 Mbytes
    Step    Atoms         KinEng            CPU 
       2     1331  2.5460957e-07              0 
  205800     1331  6.9323269e-05      3052.4932 
Loop time of 3052.49 on 40 procs for 205798 steps with 1331 atoms, finish time Fri Nov 25 11:54:32 2022


Pair  time (%) = 0.574592 (0.0188237)
Neigh time (%) = 0.414207 (0.0135695)
Comm  time (%) = 1.69823 (0.0556342)
Outpt time (%) = 3.25299e-05 (1.06568e-06)
Other time (%) = 3049.81 (99.912)

Nlocal:    33.275 ave 551 max 0 min
Histogram: 36 0 2 0 0 0 0 0 0 2
Nghost:    13.85 ave 173 max 0 min
Histogram: 36 0 0 0 0 1 1 0 0 2
Neighs:    11.2 ave 192 max 0 min
Histogram: 36 1 1 0 0 0 0 0 1 1

Total # of neighbors = 448
Ave neighs/atom = 0.336589
Neighbor list builds = 550
Dangerous builds = 0
write_dump all custom dump.atom_info_ac_* id type x y z radius vx vy vz density #
run 205798
Setting up run at Fri Nov 25 11:54:32 2022

Memory usage per processor = 1084.21 Mbytes
    Step    Atoms         KinEng            CPU 
  205800     1331  6.9323269e-05              0 
  411598     1331  0.00040113192      3052.7701 
Loop time of 3052.79 on 40 procs for 205798 steps with 1331 atoms, finish time Fri Nov 25 12:45:25 2022


Pair  time (%) = 0.57901 (0.0189666)
Neigh time (%) = 0.412782 (0.0135214)
Comm  time (%) = 1.76249 (0.0577337)
Outpt time (%) = 0.000912881 (2.99032e-05)
Other time (%) = 3050.04 (99.9097)

Nlocal:    33.275 ave 539 max 0 min
Histogram: 36 0 2 0 0 0 0 0 0 2
Nghost:    13.625 ave 168 max 0 min
Histogram: 36 0 0 0 0 1 1 0 0 2
Neighs:    11.6 ave 194 max 0 min
Histogram: 36 1 1 0 0 0 0 0 0 2

Total # of neighbors = 464
Ave neighs/atom = 0.34861
Neighbor list builds = 550
Dangerous builds = 0
write_dump all custom dump.atom_info_ac_* id type x y z radius vx vy vz density #
run 205798
Setting up run at Fri Nov 25 12:45:25 2022

Memory usage per processor = 1084.21 Mbytes
    Step    Atoms         KinEng            CPU 
  411598     1331  0.00040113192              0 
  617396     1331  0.00080880771      3179.4879 
Loop time of 3179.49 on 40 procs for 205798 steps with 1331 atoms, finish time Fri Nov 25 13:38:25 2022


Pair  time (%) = 0.585646 (0.0184195)
Neigh time (%) = 0.415797 (0.0130775)
Comm  time (%) = 1.81818 (0.0571846)
Outpt time (%) = 0.000911236 (2.86598e-05)
Other time (%) = 3176.67 (99.9113)

Nlocal:    33.275 ave 520 max 0 min
Histogram: 36 0 2 0 0 0 0 0 0 2
Nghost:    13.175 ave 162 max 0 min
Histogram: 36 0 0 0 0 1 1 0 0 2
Neighs:    11.9 ave 192 max 0 min
Histogram: 36 0 2 0 0 0 0 0 0 2

Total # of neighbors = 476
Ave neighs/atom = 0.357626
Neighbor list builds = 550
Dangerous builds = 0
write_dump all custom dump.atom_info_ac_* id type x y z radius vx vy vz density #
run 205798
Setting up run at Fri Nov 25 13:38:25 2022

Memory usage per processor = 1084.21 Mbytes
    Step    Atoms         KinEng            CPU 
  617396     1331  0.00080880771              0 
  823194     1331   0.0013877873      3141.6586 
Loop time of 3141.66 on 40 procs for 205798 steps with 1331 atoms, finish time Fri Nov 25 14:30:47 2022


Pair  time (%) = 0.583617 (0.0185767)
Neigh time (%) = 0.420002 (0.0133688)
Comm  time (%) = 1.91761 (0.0610382)
Outpt time (%) = 0.000984854 (3.13482e-05)
Other time (%) = 3138.74 (99.907)

Nlocal:    33.275 ave 512 max 0 min
Histogram: 36 0 2 0 0 0 0 0 0 2
Nghost:    12.575 ave 154 max 0 min
Histogram: 36 0 0 0 0 1 0 1 0 2
Neighs:    12 ave 193 max 0 min
Histogram: 36 0 2 0 0 0 0 0 0 2

Total # of neighbors = 480
Ave neighs/atom = 0.360631
Neighbor list builds = 550
Dangerous builds = 0
write_dump all custom dump.atom_info_ac_* id type x y z radius vx vy vz density #
run 205798
Setting up run at Fri Nov 25 14:30:47 2022

Memory usage per processor = 1084.21 Mbytes
    Step    Atoms         KinEng            CPU 
  823194     1331   0.0013877873              0 
 1028992     1331   0.0013371598       3051.485 
Loop time of 3051.49 on 40 procs for 205798 steps with 1331 atoms, finish time Fri Nov 25 15:21:38 2022


Pair  time (%) = 0.584312 (0.0191484)
Neigh time (%) = 0.420753 (0.0137885)
Comm  time (%) = 1.91516 (0.0627617)
Outpt time (%) = 0.000644761 (2.11294e-05)
Other time (%) = 3048.56 (99.9043)

Nlocal:    33.275 ave 499 max 0 min
Histogram: 36 0 1 1 0 0 0 0 0 2
Nghost:    11.925 ave 157 max 0 min
Histogram: 36 0 0 0 1 0 1 0 1 1
Neighs:    12.55 ave 200 max 0 min
Histogram: 36 0 2 0 0 0 0 0 0 2

Total # of neighbors = 502
Ave neighs/atom = 0.37716
Neighbor list builds = 550
Dangerous builds = 0
write_dump all custom dump.atom_info_ac_* id type x y z radius vx vy vz density #
run 205798
Setting up run at Fri Nov 25 15:21:38 2022

Memory usage per processor = 1084.21 Mbytes
    Step    Atoms         KinEng            CPU 
 1028992     1331   0.0013371598              0 
 1234790     1331   0.0016604193      3070.0346 
Loop time of 3070.04 on 40 procs for 205798 steps with 1331 atoms, finish time Fri Nov 25 16:12:48 2022


Pair  time (%) = 0.589054 (0.0191872)
Neigh time (%) = 0.423224 (0.0137856)
Comm  time (%) = 2.00818 (0.0654123)
Outpt time (%) = 0.0010477 (3.41266e-05)
Other time (%) = 3067.01 (99.9016)

Nlocal:    33.275 ave 496 max 0 min
Histogram: 36 0 0 2 0 0 0 0 0 2
Nghost:    11.275 ave 150 max 0 min
Histogram: 36 0 0 0 0 2 0 0 0 2
Neighs:    12.25 ave 192 max 0 min
Histogram: 36 0 1 1 0 0 0 0 0 2

Total # of neighbors = 490
Ave neighs/atom = 0.368144
Neighbor list builds = 550
Dangerous builds = 0
write_dump all custom dump.atom_info_ac_* id type x y z radius vx vy vz density #
run 205798
Setting up run at Fri Nov 25 16:12:48 2022

Memory usage per processor = 1084.21 Mbytes
    Step    Atoms         KinEng            CPU 
 1234790     1331   0.0016604193              0 
 1440588     1330   0.0015806195      3095.9614 
Loop time of 3095.96 on 40 procs for 205798 steps with 1330 atoms, finish time Fri Nov 25 17:04:24 2022


Pair  time (%) = 0.583617 (0.0188509)
Neigh time (%) = 0.424622 (0.0137154)
Comm  time (%) = 2.19125 (0.0707775)
Outpt time (%) = 0.000989879 (3.19732e-05)
Other time (%) = 3092.76 (99.8966)

Nlocal:    33.25 ave 493 max 0 min
Histogram: 36 0 0 2 0 0 0 0 0 2
Nghost:    10.975 ave 143 max 0 min
Histogram: 36 0 0 0 0 1 1 0 0 2
Neighs:    11.95 ave 187 max 0 min
Histogram: 36 0 1 1 0 0 0 0 0 2

Total # of neighbors = 478
Ave neighs/atom = 0.359398
Neighbor list builds = 550
Dangerous builds = 0
write_dump all custom dump.atom_info_ac_* id type x y z radius vx vy vz density #
run 205798
Setting up run at Fri Nov 25 17:04:24 2022

Memory usage per processor = 1084.21 Mbytes
    Step    Atoms         KinEng            CPU 
 1440588     1330   0.0015806195              0 
 1646386     1330   0.0030612735      3107.6436 
Loop time of 3107.64 on 40 procs for 205798 steps with 1330 atoms, finish time Fri Nov 25 17:56:12 2022


Pair  time (%) = 0.584946 (0.0188228)
Neigh time (%) = 0.424249 (0.0136518)
Comm  time (%) = 2.46084 (0.0791867)
Outpt time (%) = 0.00108317 (3.48551e-05)
Other time (%) = 3104.17 (99.8883)

Nlocal:    33.25 ave 498 max 0 min
Histogram: 36 0 1 1 0 0 0 0 0 2
Nghost:    10.85 ave 145 max 0 min
Histogram: 36 0 0 0 0 2 0 0 1 1
Neighs:    12.025 ave 189 max 0 min
Histogram: 36 0 1 1 0 0 0 0 0 2

Total # of neighbors = 481
Ave neighs/atom = 0.361654
Neighbor list builds = 550
Dangerous builds = 0
write_dump all custom dump.atom_info_ac_* id type x y z radius vx vy vz density #
run 205798
Setting up run at Fri Nov 25 17:56:12 2022

Memory usage per processor = 1084.21 Mbytes
    Step    Atoms         KinEng            CPU 
 1646386     1330   0.0030612735              0 
 1852184     1330   0.0027021449      3113.2544 
Loop time of 3113.25 on 40 procs for 205798 steps with 1330 atoms, finish time Fri Nov 25 18:48:06 2022


Pair  time (%) = 0.57963 (0.0186181)
Neigh time (%) = 0.426362 (0.0136951)
Comm  time (%) = 2.10506 (0.0676161)
Outpt time (%) = 0.00106789 (3.43013e-05)
Other time (%) = 3110.14 (99.9)

Nlocal:    33.25 ave 494 max 0 min
Histogram: 36 0 1 1 0 0 0 0 0 2
Nghost:    10.55 ave 147 max 0 min
Histogram: 36 0 0 0 1 1 0 0 1 1
Neighs:    11.425 ave 186 max 0 min
Histogram: 36 0 1 1 0 0 0 0 1 1

Total # of neighbors = 457
Ave neighs/atom = 0.343609
Neighbor list builds = 550
Dangerous builds = 0
write_dump all custom dump.atom_info_ac_* id type x y z radius vx vy vz density #
run 205798
Setting up run at Fri Nov 25 18:48:06 2022

Memory usage per processor = 1084.21 Mbytes
    Step    Atoms         KinEng            CPU 
 1852184     1330   0.0027021449              0 
 2057982     1330   0.0028426378      3213.0261 
Loop time of 3213.03 on 40 procs for 205798 steps with 1330 atoms, finish time Fri Nov 25 19:41:39 2022


Pair  time (%) = 0.577448 (0.0179721)
Neigh time (%) = 0.42877 (0.0133447)
Comm  time (%) = 2.22457 (0.0692358)
Outpt time (%) = 0.000922188 (2.87015e-05)
Other time (%) = 3209.79 (99.8994)

Nlocal:    33.25 ave 487 max 0 min
Histogram: 36 0 1 1 0 0 0 0 0 2
Nghost:    10.1 ave 141 max 0 min
Histogram: 36 0 0 0 1 1 0 0 1 1
Neighs:    10.925 ave 176 max 0 min
Histogram: 36 0 1 1 0 0 0 0 1 1

Total # of neighbors = 437
Ave neighs/atom = 0.328571
Neighbor list builds = 550
Dangerous builds = 0
write_dump all custom dump.atom_info_ac_* id type x y z radius vx vy vz density #
run 205798
Setting up run at Fri Nov 25 19:41:39 2022

Memory usage per processor = 1084.21 Mbytes
    Step    Atoms         KinEng            CPU 
 2057982     1330   0.0028426378              0 
 2263780     1329   0.0035953481      3171.6893 
Loop time of 3171.69 on 40 procs for 205798 steps with 1329 atoms, finish time Fri Nov 25 20:34:31 2022


Pair  time (%) = 0.575183 (0.0181349)
Neigh time (%) = 0.428567 (0.0135123)
Comm  time (%) = 3.00638 (0.0947879)
Outpt time (%) = 0.00119211 (3.75861e-05)
Other time (%) = 3167.68 (99.8735)

Nlocal:    33.225 ave 488 max 0 min
Histogram: 36 0 1 1 0 0 0 0 0 2
Nghost:    9.775 ave 132 max 0 min
Histogram: 36 0 0 0 0 2 0 0 1 1
Neighs:    10.325 ave 162 max 0 min
Histogram: 36 0 1 1 0 0 0 0 0 2

Total # of neighbors = 413
Ave neighs/atom = 0.31076
Neighbor list builds = 550
Dangerous builds = 0
write_dump all custom dump.atom_info_ac_* id type x y z radius vx vy vz density #
run 205798
Setting up run at Fri Nov 25 20:34:31 2022

Memory usage per processor = 1084.21 Mbytes
    Step    Atoms         KinEng            CPU 
 2263780     1329   0.0035953481              0 
 2469578     1329   0.0039341061      3140.6781 
Loop time of 3140.68 on 40 procs for 205798 steps with 1329 atoms, finish time Fri Nov 25 21:26:51 2022


Pair  time (%) = 0.580297 (0.0184768)
Neigh time (%) = 0.429151 (0.0136643)
Comm  time (%) = 2.69293 (0.0857437)
Outpt time (%) = 0.0012696 (4.04244e-05)
Other time (%) = 3136.97 (99.8821)

Nlocal:    33.225 ave 485 max 0 min
Histogram: 36 0 1 1 0 0 0 0 0 2
Nghost:    9.5 ave 124 max 0 min
Histogram: 36 0 0 0 0 1 1 1 0 1
Neighs:    10.125 ave 163 max 0 min
Histogram: 36 0 1 1 0 0 0 0 1 1

Total # of neighbors = 405
Ave neighs/atom = 0.30474
Neighbor list builds = 550
Dangerous builds = 0
write_dump all custom dump.atom_info_ac_* id type x y z radius vx vy vz density #
run 205798
Setting up run at Fri Nov 25 21:26:52 2022

Memory usage per processor = 1084.21 Mbytes
    Step    Atoms         KinEng            CPU 
 2469578     1329   0.0039341061              0 
 2675376     1329   0.0044594888      3110.9032 
Loop time of 3110.9 on 40 procs for 205798 steps with 1329 atoms, finish time Fri Nov 25 22:18:43 2022


Pair  time (%) = 0.583395 (0.0187532)
Neigh time (%) = 0.43109 (0.0138574)
Comm  time (%) = 3.16461 (0.101726)
Outpt time (%) = 0.00122453 (3.93624e-05)
Other time (%) = 3106.72 (99.8656)

Nlocal:    33.225 ave 484 max 0 min
Histogram: 36 0 1 1 0 0 0 0 0 2
Nghost:    9.325 ave 123 max 0 min
Histogram: 36 0 0 0 0 1 1 1 0 1
Neighs:    10.1 ave 163 max 0 min
Histogram: 36 0 2 0 0 0 0 0 1 1

Total # of neighbors = 404
Ave neighs/atom = 0.303988
Neighbor list builds = 550
Dangerous builds = 0
write_dump all custom dump.atom_info_ac_* id type x y z radius vx vy vz density #
run 205798
Setting up run at Fri Nov 25 22:18:43 2022

Memory usage per processor = 1084.21 Mbytes
    Step    Atoms         KinEng            CPU 
 2675376     1329   0.0044594888              0 
 2881174     1329    0.005109352      3107.1957 
Loop time of 3107.2 on 40 procs for 205798 steps with 1329 atoms, finish time Fri Nov 25 23:10:30 2022


Pair  time (%) = 0.580751 (0.0186905)
Neigh time (%) = 0.429754 (0.0138309)
Comm  time (%) = 3.36867 (0.108415)
Outpt time (%) = 0.00116783 (3.75846e-05)
Other time (%) = 3102.82 (99.859)

Nlocal:    33.225 ave 490 max 0 min
Histogram: 36 0 1 1 0 0 0 0 0 2
Nghost:    9.6 ave 128 max 0 min
Histogram: 36 0 0 0 0 1 1 1 0 1
Neighs:    10.8 ave 181 max 0 min
Histogram: 36 0 2 0 0 0 0 0 1 1

Total # of neighbors = 432
Ave neighs/atom = 0.325056
Neighbor list builds = 550
Dangerous builds = 0
write_dump all custom dump.atom_info_ac_* id type x y z radius vx vy vz density #
run 205798
Setting up run at Fri Nov 25 23:10:30 2022

Memory usage per processor = 1084.21 Mbytes
    Step    Atoms         KinEng            CPU 
 2881174     1329    0.005109352              0 
 3086972     1328     0.00557851      3120.0133 
Loop time of 3120.01 on 40 procs for 205798 steps with 1328 atoms, finish time Sat Nov 26 00:02:30 2022


Pair  time (%) = 0.576218 (0.0184685)
Neigh time (%) = 0.427326 (0.0136963)
Comm  time (%) = 3.16131 (0.101323)
Outpt time (%) = 0.000725197 (2.32434e-05)
Other time (%) = 3115.85 (99.8665)

Nlocal:    33.2 ave 485 max 0 min
Histogram: 36 0 1 1 0 0 0 0 0 2
Nghost:    9.675 ave 133 max 0 min
Histogram: 36 0 0 0 0 2 0 1 0 1
Neighs:    9.725 ave 181 max 0 min
Histogram: 36 1 1 0 0 0 0 1 0 1

Total # of neighbors = 389
Ave neighs/atom = 0.292922
Neighbor list builds = 550
Dangerous builds = 0
write_dump all custom dump.atom_info_ac_* id type x y z radius vx vy vz density #
run 205798
Setting up run at Sat Nov 26 00:02:30 2022

Memory usage per processor = 1084.21 Mbytes
    Step    Atoms         KinEng            CPU 
 3086972     1328     0.00557851              0 
 3292770     1328   0.0062191814      3115.2052 
Loop time of 3115.21 on 40 procs for 205798 steps with 1328 atoms, finish time Sat Nov 26 00:54:25 2022


Pair  time (%) = 0.572465 (0.0183765)
Neigh time (%) = 0.427886 (0.0137354)
Comm  time (%) = 3.22893 (0.103651)
Outpt time (%) = 0.0011716 (3.76091e-05)
Other time (%) = 3110.98 (99.8642)

Nlocal:    33.2 ave 484 max 0 min
Histogram: 36 0 2 0 0 0 0 0 0 2
Nghost:    9.7 ave 133 max 0 min
Histogram: 36 0 0 0 0 2 1 0 0 1
Neighs:    9.75 ave 174 max 0 min
Histogram: 36 1 1 0 0 0 0 0 1 1

Total # of neighbors = 390
Ave neighs/atom = 0.293675
Neighbor list builds = 550
Dangerous builds = 0
write_dump all custom dump.atom_info_ac_* id type x y z radius vx vy vz density #
run 205798
Setting up run at Sat Nov 26 00:54:25 2022

Memory usage per processor = 1084.21 Mbytes
    Step    Atoms         KinEng            CPU 
 3292770     1328   0.0062191814              0 
 3498568     1328    0.006732524      3094.4229 
Loop time of 3094.42 on 40 procs for 205798 steps with 1328 atoms, finish time Sat Nov 26 01:46:00 2022


Pair  time (%) = 0.568468 (0.0183707)
Neigh time (%) = 0.426158 (0.0137718)
Comm  time (%) = 2.99574 (0.0968108)
Outpt time (%) = 0.00113919 (3.68143e-05)
Other time (%) = 3090.43 (99.871)

Nlocal:    33.2 ave 479 max 0 min
Histogram: 35 1 2 0 0 0 0 0 0 2
Nghost:    9.075 ave 130 max 0 min
Histogram: 36 0 0 0 0 2 0 1 0 1
Neighs:    9.5 ave 164 max 0 min
Histogram: 36 1 1 0 0 0 0 0 0 2

Total # of neighbors = 380
Ave neighs/atom = 0.286145
Neighbor list builds = 550
Dangerous builds = 0
write_dump all custom dump.atom_info_ac_* id type x y z radius vx vy vz density #
run 205798
Setting up run at Sat Nov 26 01:46:00 2022

Memory usage per processor = 1084.21 Mbytes
    Step    Atoms         KinEng            CPU 
 3498568     1328    0.006732524              0 
 3704366     1328   0.0072203867      3100.2033 
Loop time of 3100.2 on 40 procs for 205798 steps with 1328 atoms, finish time Sat Nov 26 02:37:40 2022


Pair  time (%) = 0.567586 (0.018308)
Neigh time (%) = 0.427535 (0.0137906)
Comm  time (%) = 2.77007 (0.0893512)
Outpt time (%) = 0.00129618 (4.18096e-05)
Other time (%) = 3096.44 (99.8785)

Nlocal:    33.2 ave 472 max 0 min
Histogram: 35 1 2 0 0 0 0 0 0 2
Nghost:    8.9 ave 120 max 0 min
Histogram: 36 0 0 0 0 2 0 0 1 1
Neighs:    9.375 ave 163 max 0 min
Histogram: 36 1 1 0 0 0 0 0 0 2

Total # of neighbors = 375
Ave neighs/atom = 0.28238
Neighbor list builds = 550
Dangerous builds = 0
write_dump all custom dump.atom_info_ac_* id type x y z radius vx vy vz density #
run 205798
Setting up run at Sat Nov 26 02:37:40 2022

Memory usage per processor = 1084.21 Mbytes
    Step    Atoms         KinEng            CPU 
 3704366     1328   0.0072203867              0 
 3910164     1328   0.0080481919      3139.0969 
Loop time of 3139.1 on 40 procs for 205798 steps with 1328 atoms, finish time Sat Nov 26 03:29:59 2022


Pair  time (%) = 0.565748 (0.0180226)
Neigh time (%) = 0.427555 (0.0136203)
Comm  time (%) = 3.75146 (0.119508)
Outpt time (%) = 0.00119423 (3.80437e-05)
Other time (%) = 3134.35 (99.8488)

Nlocal:    33.2 ave 465 max 0 min
Histogram: 36 0 2 0 0 0 0 0 0 2
Nghost:    9.1 ave 114 max 0 min
Histogram: 36 0 0 0 0 0 2 0 1 1
Neighs:    8.75 ave 159 max 0 min
Histogram: 36 1 1 0 0 0 0 1 0 1

Total # of neighbors = 350
Ave neighs/atom = 0.263554
Neighbor list builds = 550
Dangerous builds = 0
write_dump all custom dump.atom_info_ac_* id type x y z radius vx vy vz density #
run 205798
Setting up run at Sat Nov 26 03:29:59 2022

Memory usage per processor = 1084.21 Mbytes
    Step    Atoms         KinEng            CPU 
 3910164     1328   0.0080481919              0 
 4115962     1328   0.0084110674      3145.8161 
Loop time of 3145.82 on 40 procs for 205798 steps with 1328 atoms, finish time Sat Nov 26 04:22:25 2022


Pair  time (%) = 0.564676 (0.01795)
Neigh time (%) = 0.427784 (0.0135985)
Comm  time (%) = 3.42599 (0.108906)
Outpt time (%) = 0.00104304 (3.31564e-05)
Other time (%) = 3141.4 (99.8595)

Nlocal:    33.2 ave 464 max 0 min
Histogram: 35 1 2 0 0 0 0 0 0 2
Nghost:    9.175 ave 112 max 0 min
Histogram: 36 0 0 0 0 0 2 0 1 1
Neighs:    8.725 ave 164 max 0 min
Histogram: 36 1 1 0 0 0 0 1 0 1

Total # of neighbors = 349
Ave neighs/atom = 0.262801
Neighbor list builds = 550
Dangerous builds = 0
write_dump all custom dump.atom_info_ac_* id type x y z radius vx vy vz density #
run 205798
Setting up run at Sat Nov 26 04:22:25 2022

Memory usage per processor = 1084.21 Mbytes
    Step    Atoms         KinEng            CPU 
 4115962     1328   0.0084110674              0 
 4321760     1328   0.0091501236      3135.3396 
Loop time of 3135.34 on 40 procs for 205798 steps with 1328 atoms, finish time Sat Nov 26 05:14:41 2022


Pair  time (%) = 0.558774 (0.0178218)
Neigh time (%) = 0.430323 (0.0137249)
Comm  time (%) = 3.07048 (0.0979315)
Outpt time (%) = 0.0232356 (0.000741087)
Other time (%) = 3131.26 (99.8698)

Nlocal:    33.2 ave 463 max 0 min
Histogram: 35 1 2 0 0 0 0 0 0 2
Nghost:    9 ave 115 max 0 min
Histogram: 36 0 0 0 0 1 1 0 1 1
Neighs:    8.4 ave 167 max 0 min
Histogram: 37 1 0 0 0 0 1 0 0 1

Total # of neighbors = 336
Ave neighs/atom = 0.253012
Neighbor list builds = 550
Dangerous builds = 0
write_dump all custom dump.atom_info_ac_* id type x y z radius vx vy vz density #
run 205798
Setting up run at Sat Nov 26 05:14:41 2022

Memory usage per processor = 1084.21 Mbytes
    Step    Atoms         KinEng            CPU 
 4321760     1328   0.0091501236              0 
 4527558     1328   0.0097771185      3111.1671 
Loop time of 3111.17 on 40 procs for 205798 steps with 1328 atoms, finish time Sat Nov 26 06:06:32 2022


Pair  time (%) = 0.556529 (0.0178881)
Neigh time (%) = 0.428992 (0.0137888)
Comm  time (%) = 3.86117 (0.124107)
Outpt time (%) = 0.00126241 (4.05766e-05)
Other time (%) = 3106.32 (99.8442)

Nlocal:    33.2 ave 461 max 0 min
Histogram: 34 2 2 0 0 0 0 0 0 2
Nghost:    8.9 ave 118 max 0 min
Histogram: 36 0 0 0 0 1 1 1 0 1
Neighs:    8.525 ave 152 max 0 min
Histogram: 36 2 0 0 0 0 0 0 1 1

Total # of neighbors = 341
Ave neighs/atom = 0.256777
Neighbor list builds = 550
Dangerous builds = 0
write_dump all custom dump.atom_info_ac_* id type x y z radius vx vy vz density #
run 205798
Setting up run at Sat Nov 26 06:06:32 2022

Memory usage per processor = 1084.21 Mbytes
    Step    Atoms         KinEng            CPU 
 4527558     1328   0.0097771185              0 
 4733356     1328    0.010649905      3123.9203 
Loop time of 3123.92 on 40 procs for 205798 steps with 1328 atoms, finish time Sat Nov 26 06:58:36 2022


Pair  time (%) = 0.554986 (0.0177657)
Neigh time (%) = 0.428812 (0.0137267)
Comm  time (%) = 3.69678 (0.118338)
Outpt time (%) = 0.00135641 (4.342e-05)
Other time (%) = 3119.24 (99.8501)

Nlocal:    33.2 ave 453 max 0 min
Histogram: 34 2 1 1 0 0 0 0 0 2
Nghost:    8.825 ave 116 max 0 min
Histogram: 36 0 0 0 0 2 0 1 0 1
Neighs:    8.325 ave 138 max 0 min
Histogram: 36 1 1 0 0 0 0 0 0 2

Total # of neighbors = 333
Ave neighs/atom = 0.250753
Neighbor list builds = 550
Dangerous builds = 0
write_dump all custom dump.atom_info_ac_* id type x y z radius vx vy vz density #
run 205798
Setting up run at Sat Nov 26 06:58:36 2022

Memory usage per processor = 1084.21 Mbytes
    Step    Atoms         KinEng            CPU 
 4733356     1328    0.010649905              0 
 4939154     1327     0.01132819      3142.7786 
Loop time of 3142.78 on 40 procs for 205798 steps with 1327 atoms, finish time Sat Nov 26 07:50:59 2022


Pair  time (%) = 0.556269 (0.0176999)
Neigh time (%) = 0.429764 (0.0136747)
Comm  time (%) = 3.69041 (0.117425)
Outpt time (%) = 0.00126797 (4.03454e-05)
Other time (%) = 3138.1 (99.8512)

Nlocal:    33.175 ave 453 max 0 min
Histogram: 33 3 2 0 0 0 0 0 0 2
Nghost:    8.8 ave 106 max 0 min
Histogram: 36 0 0 0 0 0 2 0 0 2
Neighs:    8.5 ave 147 max 0 min
Histogram: 37 1 0 0 0 0 0 0 0 2

Total # of neighbors = 340
Ave neighs/atom = 0.256217
Neighbor list builds = 550
Dangerous builds = 0
write_dump all custom dump.atom_info_ac_* id type x y z radius vx vy vz density #
run 205798
Setting up run at Sat Nov 26 07:50:59 2022

Memory usage per processor = 1084.21 Mbytes
    Step    Atoms         KinEng            CPU 
 4939154     1327     0.01132819              0 
 5144952     1327    0.011824197      3119.6507 
Loop time of 3119.65 on 40 procs for 205798 steps with 1327 atoms, finish time Sat Nov 26 08:42:59 2022


Pair  time (%) = 0.560054 (0.0179525)
Neigh time (%) = 0.503114 (0.0161273)
Comm  time (%) = 4.31474 (0.138308)
Outpt time (%) = 0.000833288 (2.67109e-05)
Other time (%) = 3114.27 (99.8276)

Nlocal:    33.175 ave 450 max 0 min
Histogram: 33 3 2 0 0 0 0 0 0 2
Nghost:    8.65 ave 100 max 0 min
Histogram: 36 0 0 0 0 0 2 0 0 2
Neighs:    8.9 ave 157 max 0 min
Histogram: 36 2 0 0 0 0 0 0 1 1

Total # of neighbors = 356
Ave neighs/atom = 0.268274
Neighbor list builds = 639
Dangerous builds = 0
write_dump all custom dump.atom_info_ac_* id type x y z radius vx vy vz density #
run 205798
Setting up run at Sat Nov 26 08:42:59 2022

Memory usage per processor = 1084.21 Mbytes
    Step    Atoms         KinEng            CPU 
 5144952     1327    0.011824197              0 
 5350750     1327    0.012629149       3113.612 
Loop time of 3113.61 on 40 procs for 205798 steps with 1327 atoms, finish time Sat Nov 26 09:34:53 2022


Pair  time (%) = 0.56214 (0.0180543)
Neigh time (%) = 0.535582 (0.0172013)
Comm  time (%) = 4.31589 (0.138614)
Outpt time (%) = 0.000745422 (2.39408e-05)
Other time (%) = 3108.2 (99.8261)

Nlocal:    33.175 ave 444 max 0 min
Histogram: 35 1 2 0 0 0 0 0 0 2
Nghost:    8.625 ave 106 max 0 min
Histogram: 36 0 0 0 0 1 1 0 0 2
Neighs:    8.05 ave 154 max 0 min
Histogram: 36 2 0 0 0 0 0 1 0 1

Total # of neighbors = 322
Ave neighs/atom = 0.242653
Neighbor list builds = 679
Dangerous builds = 0
write_dump all custom dump.atom_info_ac_* id type x y z radius vx vy vz density #
run 205798
Setting up run at Sat Nov 26 09:34:53 2022

Memory usage per processor = 1084.21 Mbytes
    Step    Atoms         KinEng            CPU 
 5350750     1327    0.012629149              0 
 5556548     1326    0.013829547      3142.8885 
Loop time of 3142.9 on 40 procs for 205798 steps with 1326 atoms, finish time Sat Nov 26 10:27:16 2022


Pair  time (%) = 0.559481 (0.0178014)
Neigh time (%) = 0.527817 (0.016794)
Comm  time (%) = 3.73711 (0.118906)
Outpt time (%) = 0.00127422 (4.05429e-05)
Other time (%) = 3138.07 (99.8465)

Nlocal:    33.15 ave 437 max 0 min
Histogram: 33 3 2 0 0 0 0 0 0 2
Nghost:    8.6 ave 110 max 0 min
Histogram: 36 0 0 0 0 2 0 0 0 2
Neighs:    8.15 ave 148 max 0 min
Histogram: 36 2 0 0 0 0 0 0 1 1

Total # of neighbors = 326
Ave neighs/atom = 0.245852
Neighbor list builds = 669
Dangerous builds = 0
write_dump all custom dump.atom_info_ac_* id type x y z radius vx vy vz density #
run 205798
Setting up run at Sat Nov 26 10:27:16 2022

Memory usage per processor = 1084.21 Mbytes
    Step    Atoms         KinEng            CPU 
 5556548     1326    0.013829547              0 
 5762346     1325    0.014119597      3177.1672 
Loop time of 3177.17 on 40 procs for 205798 steps with 1325 atoms, finish time Sat Nov 26 11:20:13 2022


Pair  time (%) = 0.559119 (0.017598)
Neigh time (%) = 0.529571 (0.016668)
Comm  time (%) = 4.84047 (0.152352)
Outpt time (%) = 0.00142768 (4.49357e-05)
Other time (%) = 3171.24 (99.8133)

Nlocal:    33.125 ave 435 max 0 min
Histogram: 32 4 2 0 0 0 0 0 0 2
Nghost:    8.65 ave 109 max 0 min
Histogram: 36 0 0 0 0 2 0 0 1 1
Neighs:    7.75 ave 148 max 0 min
Histogram: 36 1 1 0 0 0 0 1 0 1

Total # of neighbors = 310
Ave neighs/atom = 0.233962
Neighbor list builds = 672
Dangerous builds = 0
write_dump all custom dump.atom_info_ac_* id type x y z radius vx vy vz density #
run 205798
Setting up run at Sat Nov 26 11:20:13 2022

Memory usage per processor = 1084.21 Mbytes
    Step    Atoms         KinEng            CPU 
 5762346     1325    0.014119597              0 
 5968144     1324    0.014923927      3145.0945 
Loop time of 3145.09 on 40 procs for 205798 steps with 1324 atoms, finish time Sat Nov 26 12:12:38 2022


Pair  time (%) = 0.557088 (0.0177129)
Neigh time (%) = 0.525271 (0.0167013)
Comm  time (%) = 4.03224 (0.128207)
Outpt time (%) = 0.00134125 (4.26459e-05)
Other time (%) = 3139.98 (99.8373)

Nlocal:    33.1 ave 432 max 0 min
Histogram: 32 4 2 0 0 0 0 0 0 2
Nghost:    8.825 ave 112 max 0 min
Histogram: 36 0 0 0 0 2 0 0 1 1
Neighs:    7.9 ave 142 max 0 min
Histogram: 36 2 0 0 0 0 0 0 1 1

Total # of neighbors = 316
Ave neighs/atom = 0.238671
Neighbor list builds = 665
Dangerous builds = 0
write_dump all custom dump.atom_info_ac_* id type x y z radius vx vy vz density #
run 205798
Setting up run at Sat Nov 26 12:12:38 2022

Memory usage per processor = 1084.21 Mbytes
    Step    Atoms         KinEng            CPU 
 5968144     1324    0.014923927              0 
 6173942     1323    0.015426608      3159.0299 
Loop time of 3159.03 on 40 procs for 205798 steps with 1323 atoms, finish time Sat Nov 26 13:05:17 2022


Pair  time (%) = 0.558491 (0.0176792)
Neigh time (%) = 0.522917 (0.0165531)
Comm  time (%) = 4.11336 (0.13021)
Outpt time (%) = 0.000940802 (2.97814e-05)
Other time (%) = 3153.83 (99.8355)

Nlocal:    33.075 ave 431 max 0 min
Histogram: 32 4 1 1 0 0 0 0 0 2
Nghost:    8.575 ave 103 max 0 min
Histogram: 36 0 0 0 0 1 1 0 0 2
Neighs:    7.575 ave 131 max 0 min
Histogram: 36 2 0 0 0 0 0 0 0 2

Total # of neighbors = 303
Ave neighs/atom = 0.229025
Neighbor list builds = 663
Dangerous builds = 0
write_dump all custom dump.atom_info_ac_* id type x y z radius vx vy vz density #
run 205798
Setting up run at Sat Nov 26 13:05:18 2022

Memory usage per processor = 1084.21 Mbytes
    Step    Atoms         KinEng            CPU 
 6173942     1323    0.015426608              0 
 6379740     1321    0.016255332      3148.7647 
Loop time of 3148.77 on 40 procs for 205798 steps with 1321 atoms, finish time Sat Nov 26 13:57:46 2022


Pair  time (%) = 0.555104 (0.0176293)
Neigh time (%) = 0.52677 (0.0167294)
Comm  time (%) = 4.63307 (0.147139)
Outpt time (%) = 0.00128443 (4.07914e-05)
Other time (%) = 3143.05 (99.8185)

Nlocal:    33.025 ave 427 max 0 min
Histogram: 33 3 2 0 0 0 0 0 0 2
Nghost:    8.25 ave 105 max 0 min
Histogram: 36 0 0 0 0 2 0 0 0 2
Neighs:    7.55 ave 124 max 0 min
Histogram: 36 1 1 0 0 0 0 0 0 2

Total # of neighbors = 302
Ave neighs/atom = 0.228615
Neighbor list builds = 669
Dangerous builds = 0
write_dump all custom dump.atom_info_ac_* id type x y z radius vx vy vz density #
run 205798
Setting up run at Sat Nov 26 13:57:46 2022

Memory usage per processor = 1084.21 Mbytes
    Step    Atoms         KinEng            CPU 
 6379740     1321    0.016255332              0 
 6585538     1320    0.016976398      3161.7624 
Loop time of 3161.76 on 40 procs for 205798 steps with 1320 atoms, finish time Sat Nov 26 14:50:28 2022


Pair  time (%) = 0.557502 (0.0176326)
Neigh time (%) = 0.524537 (0.01659)
Comm  time (%) = 4.10341 (0.129782)
Outpt time (%) = 0.00151052 (4.77746e-05)
Other time (%) = 3156.58 (99.8359)

Nlocal:    33 ave 425 max 0 min
Histogram: 32 4 2 0 0 0 0 0 0 2
Nghost:    8.125 ave 100 max 0 min
Histogram: 36 0 0 0 0 1 1 0 0 2
Neighs:    7.025 ave 119 max 0 min
Histogram: 36 2 0 0 0 0 0 0 1 1

Total # of neighbors = 281
Ave neighs/atom = 0.212879
Neighbor list builds = 664
Dangerous builds = 0
write_dump all custom dump.atom_info_ac_* id type x y z radius vx vy vz density #
run 205798
Setting up run at Sat Nov 26 14:50:28 2022

Memory usage per processor = 1084.21 Mbytes
    Step    Atoms         KinEng            CPU 
 6585538     1320    0.016976398              0 
 6791336     1320    0.018280039      3121.3946 
Loop time of 3121.39 on 40 procs for 205798 steps with 1320 atoms, finish time Sat Nov 26 15:42:30 2022


Pair  time (%) = 0.555267 (0.0177891)
Neigh time (%) = 0.521101 (0.0166945)
Comm  time (%) = 4.07269 (0.130477)
Outpt time (%) = 0.00120319 (3.85464e-05)
Other time (%) = 3116.24 (99.835)

Nlocal:    33 ave 424 max 0 min
Histogram: 32 4 1 1 0 0 0 0 0 2
Nghost:    8.25 ave 97 max 0 min
Histogram: 36 0 0 0 0 1 1 0 0 2
Neighs:    7.3 ave 117 max 0 min
Histogram: 36 1 1 0 0 0 0 0 0 2

Total # of neighbors = 292
Ave neighs/atom = 0.221212
Neighbor list builds = 661
Dangerous builds = 0
write_dump all custom dump.atom_info_ac_* id type x y z radius vx vy vz density #
run 205798
Setting up run at Sat Nov 26 15:42:30 2022

Memory usage per processor = 1084.21 Mbytes
    Step    Atoms         KinEng            CPU 
 6791336     1320    0.018280039              0 
 6997134     1316    0.018314575      3101.2125 
Loop time of 3101.21 on 40 procs for 205798 steps with 1316 atoms, finish time Sat Nov 26 16:34:11 2022


Pair  time (%) = 0.553354 (0.0178431)
Neigh time (%) = 0.527235 (0.0170009)
Comm  time (%) = 4.58324 (0.147789)
Outpt time (%) = 0.00126898 (4.09189e-05)
Other time (%) = 3095.55 (99.8173)

Nlocal:    32.9 ave 422 max 0 min
Histogram: 32 4 1 1 0 0 0 0 0 2
Nghost:    8.125 ave 93 max 0 min
Histogram: 36 0 0 0 0 0 1 1 0 2
Neighs:    7.2 ave 122 max 0 min
Histogram: 36 2 0 0 0 0 0 0 1 1

Total # of neighbors = 288
Ave neighs/atom = 0.218845
Neighbor list builds = 668
Dangerous builds = 0
write_dump all custom dump.atom_info_ac_* id type x y z radius vx vy vz density #
run 205798
Setting up run at Sat Nov 26 16:34:11 2022

Memory usage per processor = 1084.21 Mbytes
    Step    Atoms         KinEng            CPU 
 6997134     1316    0.018314575              0 
 7202932     1316    0.019147689      3151.1426 
Loop time of 3151.14 on 40 procs for 205798 steps with 1316 atoms, finish time Sat Nov 26 17:26:42 2022


Pair  time (%) = 0.555133 (0.0176169)
Neigh time (%) = 0.520513 (0.0165182)
Comm  time (%) = 4.60085 (0.146006)
Outpt time (%) = 0.00099758 (3.16577e-05)
Other time (%) = 3145.47 (99.8198)

Nlocal:    32.9 ave 419 max 0 min
Histogram: 32 4 2 0 0 0 0 0 0 2
Nghost:    8.1 ave 94 max 0 min
Histogram: 36 0 0 0 0 1 1 0 0 2
Neighs:    7.5 ave 122 max 0 min
Histogram: 36 2 0 0 0 0 0 0 0 2

Total # of neighbors = 300
Ave neighs/atom = 0.227964
Neighbor list builds = 659
Dangerous builds = 0
write_dump all custom dump.atom_info_ac_* id type x y z radius vx vy vz density #
run 205798
Setting up run at Sat Nov 26 17:26:42 2022

Memory usage per processor = 1084.21 Mbytes
    Step    Atoms         KinEng            CPU 
 7202932     1316    0.019147689              0 
 7408730     1313    0.020002017      3198.5563 
Loop time of 3198.56 on 40 procs for 205798 steps with 1313 atoms, finish time Sat Nov 26 18:20:01 2022


Pair  time (%) = 0.553899 (0.0173172)
Neigh time (%) = 0.481568 (0.0150558)
Comm  time (%) = 4.39214 (0.137316)
Outpt time (%) = 0.00126914 (3.96787e-05)
Other time (%) = 3193.13 (99.8303)

Nlocal:    32.825 ave 414 max 0 min
Histogram: 32 4 2 0 0 0 0 0 0 2
Nghost:    8.075 ave 97 max 0 min
Histogram: 36 0 0 0 0 0 2 0 1 1
Neighs:    7.2 ave 119 max 0 min
Histogram: 36 1 1 0 0 0 0 0 0 2

Total # of neighbors = 288
Ave neighs/atom = 0.219345
Neighbor list builds = 612
Dangerous builds = 0
write_dump all custom dump.atom_info_ac_* id type x y z radius vx vy vz density #
run 205798
Setting up run at Sat Nov 26 18:20:01 2022

Memory usage per processor = 1084.21 Mbytes
    Step    Atoms         KinEng            CPU 
 7408730     1313    0.020002017              0 
 7614528     1312    0.020471886      3125.1452 
Loop time of 3125.15 on 40 procs for 205798 steps with 1312 atoms, finish time Sat Nov 26 19:12:06 2022


Pair  time (%) = 0.546266 (0.0174797)
Neigh time (%) = 0.43971 (0.0140701)
Comm  time (%) = 3.84721 (0.123105)
Outpt time (%) = 0.0012557 (4.01804e-05)
Other time (%) = 3120.31 (99.8453)

Nlocal:    32.8 ave 418 max 0 min
Histogram: 32 4 1 1 0 0 0 0 0 2
Nghost:    8.35 ave 98 max 0 min
Histogram: 36 0 0 0 0 0 2 0 0 2
Neighs:    7.025 ave 116 max 0 min
Histogram: 36 1 1 0 0 0 0 0 1 1

Total # of neighbors = 281
Ave neighs/atom = 0.214177
Neighbor list builds = 562
Dangerous builds = 0
write_dump all custom dump.atom_info_ac_* id type x y z radius vx vy vz density #
run 205798
Setting up run at Sat Nov 26 19:12:06 2022

Memory usage per processor = 1084.21 Mbytes
    Step    Atoms         KinEng            CPU 
 7614528     1312    0.020471886              0 
 7820326     1312    0.021457457      3195.5317 
Loop time of 3195.53 on 40 procs for 205798 steps with 1312 atoms, finish time Sat Nov 26 20:05:22 2022


Pair  time (%) = 0.550888 (0.0172393)
Neigh time (%) = 0.429173 (0.0134304)
Comm  time (%) = 4.71355 (0.147504)
Outpt time (%) = 0.00140585 (4.39941e-05)
Other time (%) = 3189.84 (99.8218)

Nlocal:    32.8 ave 416 max 0 min
Histogram: 32 4 1 1 0 0 0 0 0 2
Nghost:    8.125 ave 98 max 0 min
Histogram: 36 0 0 0 0 1 1 0 1 1
Neighs:    6.925 ave 111 max 0 min
Histogram: 36 2 0 0 0 0 0 0 0 2

Total # of neighbors = 277
Ave neighs/atom = 0.211128
Neighbor list builds = 551
Dangerous builds = 0
write_dump all custom dump.atom_info_ac_* id type x y z radius vx vy vz density #
run 205798
Setting up run at Sat Nov 26 20:05:22 2022

Memory usage per processor = 1084.21 Mbytes
    Step    Atoms         KinEng            CPU 
 7820326     1312    0.021457457              0 
 8026124     1312    0.021991828      3149.0007 
Loop time of 3149 on 40 procs for 205798 steps with 1312 atoms, finish time Sat Nov 26 20:57:51 2022


Pair  time (%) = 0.550589 (0.0174846)
Neigh time (%) = 0.428804 (0.0136171)
Comm  time (%) = 4.63951 (0.147333)
Outpt time (%) = 0.00131301 (4.16961e-05)
Other time (%) = 3143.38 (99.8215)

Nlocal:    32.8 ave 415 max 0 min
Histogram: 32 4 1 1 0 0 0 0 0 2
Nghost:    8.25 ave 97 max 0 min
Histogram: 36 0 0 0 0 2 0 0 0 2
Neighs:    6.85 ave 106 max 0 min
Histogram: 35 1 2 0 0 0 0 0 0 2

Total # of neighbors = 274
Ave neighs/atom = 0.208841
Neighbor list builds = 550
Dangerous builds = 0
write_dump all custom dump.atom_info_ac_* id type x y z radius vx vy vz density #
run 205798
Setting up run at Sat Nov 26 20:57:51 2022

Memory usage per processor = 1084.21 Mbytes
    Step    Atoms         KinEng            CPU 
 8026124     1312    0.021991828              0 
 8231922     1312    0.022877305      3247.6554 
Loop time of 3247.66 on 40 procs for 205798 steps with 1312 atoms, finish time Sat Nov 26 21:51:59 2022


Pair  time (%) = 0.556202 (0.0171263)
Neigh time (%) = 0.428985 (0.0132091)
Comm  time (%) = 4.50467 (0.138705)
Outpt time (%) = 0.00136486 (4.20261e-05)
Other time (%) = 3242.16 (99.8309)

Nlocal:    32.8 ave 410 max 0 min
Histogram: 32 3 3 0 0 0 0 0 0 2
Nghost:    8.2 ave 98 max 0 min
Histogram: 36 0 0 0 0 2 0 0 0 2
Neighs:    6.3 ave 96 max 0 min
Histogram: 36 0 2 0 0 0 0 0 0 2

Total # of neighbors = 252
Ave neighs/atom = 0.192073
Neighbor list builds = 550
Dangerous builds = 0
write_dump all custom dump.atom_info_ac_* id type x y z radius vx vy vz density #
run 205798
Setting up run at Sat Nov 26 21:51:59 2022

Memory usage per processor = 1084.21 Mbytes
    Step    Atoms         KinEng            CPU 
 8231922     1312    0.022877305              0 
 8437720     1312    0.024088523      3129.4004 
Loop time of 3129.4 on 40 procs for 205798 steps with 1312 atoms, finish time Sat Nov 26 22:44:08 2022


Pair  time (%) = 0.559273 (0.0178716)
Neigh time (%) = 0.438007 (0.0139965)
Comm  time (%) = 4.99139 (0.1595)
Outpt time (%) = 0.00110114 (3.51869e-05)
Other time (%) = 3123.41 (99.8086)

Nlocal:    32.8 ave 410 max 0 min
Histogram: 32 3 3 0 0 0 0 0 0 2
Nghost:    8.1 ave 98 max 0 min
Histogram: 36 0 0 0 0 2 0 0 0 2
Neighs:    6.075 ave 102 max 0 min
Histogram: 36 2 0 0 0 0 0 0 1 1

Total # of neighbors = 243
Ave neighs/atom = 0.185213
Neighbor list builds = 560
Dangerous builds = 0
write_dump all custom dump.atom_info_ac_* id type x y z radius vx vy vz density #
run 205798
Setting up run at Sat Nov 26 22:44:09 2022

Memory usage per processor = 1084.21 Mbytes
    Step    Atoms         KinEng            CPU 
 8437720     1312    0.024088523              0 
 8643518     1311    0.024278096      3135.2862 
Loop time of 3135.29 on 40 procs for 205798 steps with 1311 atoms, finish time Sat Nov 26 23:36:24 2022


Pair  time (%) = 0.554291 (0.0176791)
Neigh time (%) = 0.433492 (0.0138262)
Comm  time (%) = 4.35704 (0.138968)
Outpt time (%) = 0.00135825 (4.33212e-05)
Other time (%) = 3129.94 (99.8295)

Nlocal:    32.775 ave 410 max 0 min
Histogram: 32 4 1 1 0 0 0 0 0 2
Nghost:    8 ave 95 max 0 min
Histogram: 36 0 0 0 0 1 1 0 0 2
Neighs:    6.4 ave 99 max 0 min
Histogram: 36 1 0 1 0 0 0 0 0 2

Total # of neighbors = 256
Ave neighs/atom = 0.195271
Neighbor list builds = 555
Dangerous builds = 0
write_dump all custom dump.atom_info_ac_* id type x y z radius vx vy vz density #
run 205798
Setting up run at Sat Nov 26 23:36:24 2022

Memory usage per processor = 1084.21 Mbytes
    Step    Atoms         KinEng            CPU 
 8643518     1311    0.024278096              0 
 8849316     1311    0.025181502      3165.1889 
Loop time of 3165.19 on 40 procs for 205798 steps with 1311 atoms, finish time Sun Nov 27 00:29:09 2022


Pair  time (%) = 0.548058 (0.0173152)
Neigh time (%) = 0.435188 (0.0137492)
Comm  time (%) = 4.45337 (0.140698)
Outpt time (%) = 0.0232827 (0.000735586)
Other time (%) = 3159.73 (99.8275)

Nlocal:    32.775 ave 407 max 0 min
Histogram: 32 3 3 0 0 0 0 0 0 2
Nghost:    7.95 ave 93 max 0 min
Histogram: 36 0 0 0 0 1 1 0 0 2
Neighs:    6.15 ave 91 max 0 min
Histogram: 35 2 1 0 0 0 0 0 0 2

Total # of neighbors = 246
Ave neighs/atom = 0.187643
Neighbor list builds = 557
Dangerous builds = 0
write_dump all custom dump.atom_info_ac_* id type x y z radius vx vy vz density #
run 205798
Setting up run at Sun Nov 27 00:29:09 2022

Memory usage per processor = 1084.21 Mbytes
    Step    Atoms         KinEng            CPU 
 8849316     1311    0.025181502              0 
 9055114     1311    0.025871949      3156.9208 
Loop time of 3156.94 on 40 procs for 205798 steps with 1311 atoms, finish time Sun Nov 27 01:21:46 2022


Pair  time (%) = 0.549406 (0.0174031)
Neigh time (%) = 0.433212 (0.0137225)
Comm  time (%) = 5.01812 (0.158955)
Outpt time (%) = 0.00127404 (4.03566e-05)
Other time (%) = 3150.94 (99.8099)

Nlocal:    32.775 ave 405 max 0 min
Histogram: 32 3 2 1 0 0 0 0 0 2
Nghost:    8.05 ave 94 max 0 min
Histogram: 36 0 0 0 0 0 2 0 0 2
Neighs:    6.15 ave 91 max 0 min
Histogram: 35 2 1 0 0 0 0 0 0 2

Total # of neighbors = 246
Ave neighs/atom = 0.187643
Neighbor list builds = 554
Dangerous builds = 0
write_dump all custom dump.atom_info_ac_* id type x y z radius vx vy vz density #
run 205798
Setting up run at Sun Nov 27 01:21:46 2022

Memory usage per processor = 1084.21 Mbytes
    Step    Atoms         KinEng            CPU 
 9055114     1311    0.025871949              0 
 9260912     1310    0.026298063      3120.3331 
Loop time of 3120.33 on 40 procs for 205798 steps with 1310 atoms, finish time Sun Nov 27 02:13:47 2022


Pair  time (%) = 0.554511 (0.0177709)
Neigh time (%) = 0.437827 (0.0140314)
Comm  time (%) = 4.86912 (0.156045)
Outpt time (%) = 0.00123596 (3.96097e-05)
Other time (%) = 3114.47 (99.8121)

Nlocal:    32.75 ave 404 max 0 min
Histogram: 32 3 2 1 0 0 0 0 0 2
Nghost:    7.825 ave 96 max 0 min
Histogram: 36 0 0 0 0 2 0 0 1 1
Neighs:    5.675 ave 86 max 0 min
Histogram: 35 1 2 0 0 0 0 0 0 2

Total # of neighbors = 227
Ave neighs/atom = 0.173282
Neighbor list builds = 560
Dangerous builds = 0
write_dump all custom dump.atom_info_ac_* id type x y z radius vx vy vz density #
run 205798
Setting up run at Sun Nov 27 02:13:47 2022

Memory usage per processor = 1084.21 Mbytes
    Step    Atoms         KinEng            CPU 
 9260912     1310    0.026298063              0 
 9466710     1310    0.027126838      3126.1216 
Loop time of 3126.12 on 40 procs for 205798 steps with 1310 atoms, finish time Sun Nov 27 03:05:53 2022


Pair  time (%) = 0.552127 (0.0176617)
Neigh time (%) = 0.439517 (0.0140595)
Comm  time (%) = 4.37152 (0.139839)
Outpt time (%) = 0.00118667 (3.79597e-05)
Other time (%) = 3120.76 (99.8284)

Nlocal:    32.75 ave 409 max 0 min
Histogram: 32 2 4 0 0 0 0 0 0 2
Nghost:    7.725 ave 91 max 0 min
Histogram: 36 0 0 0 0 2 0 0 0 2
Neighs:    6.025 ave 89 max 0 min
Histogram: 34 3 1 0 0 0 0 0 1 1

Total # of neighbors = 241
Ave neighs/atom = 0.183969
Neighbor list builds = 561
Dangerous builds = 0
write_dump all custom dump.atom_info_ac_* id type x y z radius vx vy vz density #
run 205798
Setting up run at Sun Nov 27 03:05:53 2022

Memory usage per processor = 1084.21 Mbytes
    Step    Atoms         KinEng            CPU 
 9466710     1310    0.027126838              0 
 9672508     1310    0.028193025      3192.1526 
Loop time of 3192.15 on 40 procs for 205798 steps with 1310 atoms, finish time Sun Nov 27 03:59:05 2022


Pair  time (%) = 0.548063 (0.0171691)
Neigh time (%) = 0.438838 (0.0137474)
Comm  time (%) = 4.77504 (0.149587)
Outpt time (%) = 0.00146721 (4.59631e-05)
Other time (%) = 3186.39 (99.8195)

Nlocal:    32.75 ave 406 max 0 min
Histogram: 32 4 1 1 0 0 0 0 0 2
Nghost:    7.225 ave 83 max 0 min
Histogram: 36 0 0 0 0 1 1 0 0 2
Neighs:    5.675 ave 96 max 0 min
Histogram: 36 1 0 1 0 0 0 1 0 1

Total # of neighbors = 227
Ave neighs/atom = 0.173282
Neighbor list builds = 560
Dangerous builds = 0
write_dump all custom dump.atom_info_ac_* id type x y z radius vx vy vz density #
run 205798
Setting up run at Sun Nov 27 03:59:05 2022

Memory usage per processor = 1084.21 Mbytes
    Step    Atoms         KinEng            CPU 
 9672508     1310    0.028193025              0 
 9878306     1307    0.028767272      3202.6527 
Loop time of 3202.66 on 40 procs for 205798 steps with 1307 atoms, finish time Sun Nov 27 04:52:28 2022


Pair  time (%) = 0.550677 (0.0171944)
Neigh time (%) = 0.433153 (0.0135248)
Comm  time (%) = 4.47986 (0.13988)
Outpt time (%) = 0.00147037 (4.59108e-05)
Other time (%) = 3197.19 (99.8294)

Nlocal:    32.675 ave 402 max 0 min
Histogram: 32 3 2 1 0 0 0 0 0 2
Nghost:    7.225 ave 84 max 0 min
Histogram: 36 0 0 0 0 1 1 0 0 2
Neighs:    5.95 ave 93 max 0 min
Histogram: 35 2 1 0 0 0 0 0 1 1

Total # of neighbors = 238
Ave neighs/atom = 0.182096
Neighbor list builds = 553
Dangerous builds = 0
write_dump all custom dump.atom_info_ac_* id type x y z radius vx vy vz density #
run 205798
Setting up run at Sun Nov 27 04:52:28 2022

Memory usage per processor = 1084.21 Mbytes
    Step    Atoms         KinEng            CPU 
 9878306     1307    0.028767272              0 
10084104     1305    0.029241973       3139.029 
Loop time of 3139.03 on 40 procs for 205798 steps with 1305 atoms, finish time Sun Nov 27 05:44:47 2022


Pair  time (%) = 0.543223 (0.0173055)
Neigh time (%) = 0.433313 (0.013804)
Comm  time (%) = 4.11838 (0.131199)
Outpt time (%) = 0.0012299 (3.91808e-05)
Other time (%) = 3133.93 (99.8377)

Nlocal:    32.625 ave 402 max 0 min
Histogram: 32 3 3 0 0 0 0 0 0 2
Nghost:    7.025 ave 85 max 0 min
Histogram: 36 0 0 0 0 2 0 0 1 1
Neighs:    6.05 ave 92 max 0 min
Histogram: 35 2 1 0 0 0 0 0 0 2

Total # of neighbors = 242
Ave neighs/atom = 0.185441
Neighbor list builds = 550
Dangerous builds = 0
write_dump all custom dump.atom_info_ac_* id type x y z radius vx vy vz density #
run 205798
Setting up run at Sun Nov 27 05:44:47 2022

Memory usage per processor = 1084.21 Mbytes
    Step    Atoms         KinEng            CPU 
10084104     1305    0.029241973              0 
10289902     1305     0.03043663      3126.7975 
Loop time of 3126.8 on 40 procs for 205798 steps with 1305 atoms, finish time Sun Nov 27 06:36:54 2022


Pair  time (%) = 0.549501 (0.0175739)
Neigh time (%) = 0.432367 (0.0138278)
Comm  time (%) = 4.20735 (0.134558)
Outpt time (%) = 0.00136666 (4.37079e-05)
Other time (%) = 3121.61 (99.834)

Nlocal:    32.625 ave 402 max 0 min
Histogram: 32 3 1 2 0 0 0 0 0 2
Nghost:    7 ave 83 max 0 min
Histogram: 36 0 0 0 0 1 1 0 0 2
Neighs:    5.725 ave 94 max 0 min
Histogram: 36 1 0 1 0 0 0 0 1 1

Total # of neighbors = 229
Ave neighs/atom = 0.175479
Neighbor list builds = 550
Dangerous builds = 0
write_dump all custom dump.atom_info_ac_* id type x y z radius vx vy vz density #
run 205798
Setting up run at Sun Nov 27 06:36:54 2022

Memory usage per processor = 1084.21 Mbytes
    Step    Atoms         KinEng            CPU 
10289902     1305     0.03043663              0 
10495700     1303    0.030637227      3157.8237 
Loop time of 3157.82 on 40 procs for 205798 steps with 1303 atoms, finish time Sun Nov 27 07:29:32 2022


Pair  time (%) = 0.553669 (0.0175332)
Neigh time (%) = 0.431899 (0.0136771)
Comm  time (%) = 5.07077 (0.160578)
Outpt time (%) = 2.65185e-05 (8.3977e-07)
Other time (%) = 3151.77 (99.8082)

Nlocal:    32.575 ave 398 max 0 min
Histogram: 32 3 2 1 0 0 0 0 0 2
Nghost:    6.975 ave 79 max 0 min
Histogram: 36 0 0 0 0 2 0 0 1 1
Neighs:    6.125 ave 84 max 0 min
Histogram: 33 3 1 1 0 0 0 0 0 2

Total # of neighbors = 245
Ave neighs/atom = 0.188028
Neighbor list builds = 550
Dangerous builds = 0
write_dump all custom dump.atom_info_ac_* id type x y z radius vx vy vz density #
run 205798
Setting up run at Sun Nov 27 07:29:32 2022

Memory usage per processor = 1084.21 Mbytes
    Step    Atoms         KinEng            CPU 
10495700     1303    0.030637227              0 
10701498     1302    0.031269171      3184.2087 
Loop time of 3184.21 on 40 procs for 205798 steps with 1302 atoms, finish time Sun Nov 27 08:22:37 2022


Pair  time (%) = 0.550471 (0.0172875)
Neigh time (%) = 0.495108 (0.0155488)
Comm  time (%) = 4.76402 (0.149614)
Outpt time (%) = 0.00140937 (4.42611e-05)
Other time (%) = 3178.4 (99.8175)

Nlocal:    32.55 ave 395 max 0 min
Histogram: 32 2 3 1 0 0 0 0 0 2
Nghost:    6.4 ave 81 max 0 min
Histogram: 36 0 0 0 0 2 0 0 1 1
Neighs:    6.05 ave 88 max 0 min
Histogram: 35 2 0 1 0 0 0 0 0 2

Total # of neighbors = 242
Ave neighs/atom = 0.185868
Neighbor list builds = 625
Dangerous builds = 0
write_dump all custom dump.atom_info_ac_* id type x y z radius vx vy vz density #
run 205798
Setting up run at Sun Nov 27 08:22:37 2022

Memory usage per processor = 1084.21 Mbytes
    Step    Atoms         KinEng            CPU 
10701498     1302    0.031269171              0 
10907296     1302    0.031874639      3141.6827 
Loop time of 3141.68 on 40 procs for 205798 steps with 1302 atoms, finish time Sun Nov 27 09:14:58 2022


Pair  time (%) = 0.548407 (0.0174558)
Neigh time (%) = 0.521048 (0.016585)
Comm  time (%) = 5.33749 (0.169893)
Outpt time (%) = 0.00131781 (4.19459e-05)
Other time (%) = 3135.27 (99.796)

Nlocal:    32.55 ave 395 max 0 min
Histogram: 32 2 3 1 0 0 0 0 0 2
Nghost:    6.525 ave 75 max 0 min
Histogram: 36 0 0 0 0 2 0 0 0 2
Neighs:    5.925 ave 87 max 0 min
Histogram: 35 2 0 1 0 0 0 0 0 2

Total # of neighbors = 237
Ave neighs/atom = 0.182028
Neighbor list builds = 656
Dangerous builds = 0
write_dump all custom dump.atom_info_ac_* id type x y z radius vx vy vz density #
run 205798
Setting up run at Sun Nov 27 09:14:58 2022

Memory usage per processor = 1084.21 Mbytes
    Step    Atoms         KinEng            CPU 
10907296     1302    0.031874639              0 
11113094     1298    0.032517737      3139.4762 
Loop time of 3139.48 on 40 procs for 205798 steps with 1298 atoms, finish time Sun Nov 27 10:07:18 2022


Pair  time (%) = 0.55656 (0.0177278)
Neigh time (%) = 0.444081 (0.0141451)
Comm  time (%) = 4.94862 (0.157626)
Outpt time (%) = 0.00136802 (4.35749e-05)
Other time (%) = 3133.53 (99.8105)

Nlocal:    32.45 ave 396 max 0 min
Histogram: 32 3 2 1 0 0 0 0 1 1
Nghost:    6.2 ave 69 max 0 min
Histogram: 35 1 0 0 0 2 0 0 0 2
Neighs:    6.15 ave 85 max 0 min
Histogram: 34 2 1 1 0 0 0 0 0 2

Total # of neighbors = 246
Ave neighs/atom = 0.189522
Neighbor list builds = 563
Dangerous builds = 0
write_dump all custom dump.atom_info_ac_* id type x y z radius vx vy vz density #
run 205798
Setting up run at Sun Nov 27 10:07:18 2022

Memory usage per processor = 1084.21 Mbytes
    Step    Atoms         KinEng            CPU 
11113094     1298    0.032517737              0 
11318892     1297    0.033163169      3167.2453 
Loop time of 3167.25 on 40 procs for 205798 steps with 1297 atoms, finish time Sun Nov 27 11:00:05 2022


Pair  time (%) = 0.552654 (0.017449)
Neigh time (%) = 0.434733 (0.0137259)
Comm  time (%) = 4.86847 (0.153713)
Outpt time (%) = 0.00138628 (4.37693e-05)
Other time (%) = 3161.39 (99.8151)

Nlocal:    32.425 ave 390 max 0 min
Histogram: 32 3 1 2 0 0 0 0 0 2
Nghost:    6.65 ave 74 max 0 min
Histogram: 34 2 0 0 0 2 0 0 0 2
Neighs:    5.7 ave 82 max 0 min
Histogram: 36 0 1 0 1 0 0 0 0 2

Total # of neighbors = 228
Ave neighs/atom = 0.17579
Neighbor list builds = 552
Dangerous builds = 0
write_dump all custom dump.atom_info_ac_* id type x y z radius vx vy vz density #
run 205798
Setting up run at Sun Nov 27 11:00:05 2022

Memory usage per processor = 1084.21 Mbytes
    Step    Atoms         KinEng            CPU 
11318892     1297    0.033163169              0 
11524690     1296    0.034101815       3176.507 
Loop time of 3176.51 on 40 procs for 205798 steps with 1296 atoms, finish time Sun Nov 27 11:53:02 2022


Pair  time (%) = 0.553137 (0.0174134)
Neigh time (%) = 0.44738 (0.014084)
Comm  time (%) = 4.65086 (0.146414)
Outpt time (%) = 0.00124953 (3.93368e-05)
Other time (%) = 3170.85 (99.822)

Nlocal:    32.4 ave 387 max 0 min
Histogram: 32 1 4 1 0 0 0 0 0 2
Nghost:    6.475 ave 83 max 0 min
Histogram: 36 0 0 0 1 1 0 0 1 1
Neighs:    5.975 ave 86 max 0 min
Histogram: 35 1 1 1 0 0 0 0 0 2

Total # of neighbors = 239
Ave neighs/atom = 0.184414
Neighbor list builds = 565
Dangerous builds = 0
write_dump all custom dump.atom_info_ac_* id type x y z radius vx vy vz density #
run 205798
Setting up run at Sun Nov 27 11:53:02 2022

Memory usage per processor = 1084.21 Mbytes
    Step    Atoms         KinEng            CPU 
11524690     1296    0.034101815              0 
11730488     1294    0.034320076      3139.4031 
Loop time of 3139.4 on 40 procs for 205798 steps with 1294 atoms, finish time Sun Nov 27 12:45:21 2022


Pair  time (%) = 0.557209 (0.0177489)
Neigh time (%) = 0.440598 (0.0140345)
Comm  time (%) = 4.15769 (0.132436)
Outpt time (%) = 0.00137654 (4.38471e-05)
Other time (%) = 3134.25 (99.8357)

Nlocal:    32.35 ave 386 max 0 min
Histogram: 32 2 3 1 0 0 0 0 0 2
Nghost:    6.7 ave 76 max 0 min
Histogram: 34 2 0 0 0 2 0 0 1 1
Neighs:    5.7 ave 81 max 0 min
Histogram: 35 1 1 1 0 0 0 0 0 2

Total # of neighbors = 228
Ave neighs/atom = 0.176198
Neighbor list builds = 559
Dangerous builds = 0
write_dump all custom dump.atom_info_ac_* id type x y z radius vx vy vz density #
run 205798
Setting up run at Sun Nov 27 12:45:22 2022

Memory usage per processor = 1084.21 Mbytes
    Step    Atoms         KinEng            CPU 
11730488     1294    0.034320076              0 
11936286     1292    0.034989106       3151.962 
Loop time of 3151.96 on 40 procs for 205798 steps with 1292 atoms, finish time Sun Nov 27 13:37:54 2022


Pair  time (%) = 0.550468 (0.0174643)
Neigh time (%) = 0.437188 (0.0138704)
Comm  time (%) = 4.03812 (0.128115)
Outpt time (%) = 0.00131686 (4.17791e-05)
Other time (%) = 3146.93 (99.8405)

Nlocal:    32.3 ave 387 max 0 min
Histogram: 32 3 1 2 0 0 0 0 1 1
Nghost:    6.875 ave 73 max 0 min
Histogram: 33 3 0 0 0 1 1 0 0 2
Neighs:    5.475 ave 77 max 0 min
Histogram: 35 1 2 0 0 0 0 0 0 2

Total # of neighbors = 219
Ave neighs/atom = 0.169505
Neighbor list builds = 554
Dangerous builds = 0
write_dump all custom dump.atom_info_ac_* id type x y z radius vx vy vz density #
run 205798
Setting up run at Sun Nov 27 13:37:54 2022

Memory usage per processor = 1084.21 Mbytes
    Step    Atoms         KinEng            CPU 
11936286     1292    0.034989106              0 
12142084     1291    0.035662511       3152.246 
Loop time of 3152.25 on 40 procs for 205798 steps with 1291 atoms, finish time Sun Nov 27 14:30:26 2022


Pair  time (%) = 0.552778 (0.017536)
Neigh time (%) = 0.438892 (0.0139231)
Comm  time (%) = 4.88111 (0.154845)
Outpt time (%) = 0.00137667 (4.36727e-05)
Other time (%) = 3146.37 (99.8137)

Nlocal:    32.275 ave 385 max 0 min
Histogram: 32 4 1 0 1 0 0 0 1 1
Nghost:    6.65 ave 74 max 0 min
Histogram: 35 1 0 0 0 2 0 0 0 2
Neighs:    5.475 ave 73 max 0 min
Histogram: 35 1 0 2 0 0 0 0 0 2

Total # of neighbors = 219
Ave neighs/atom = 0.169636
Neighbor list builds = 556
Dangerous builds = 0
write_dump all custom dump.atom_info_ac_* id type x y z radius vx vy vz density #
run 205798
Setting up run at Sun Nov 27 14:30:26 2022

Memory usage per processor = 1084.21 Mbytes
    Step    Atoms         KinEng            CPU 
12142084     1291    0.035662511              0 
12347882     1288    0.036096626      3156.6151 
Loop time of 3156.62 on 40 procs for 205798 steps with 1288 atoms, finish time Sun Nov 27 15:23:03 2022


Pair  time (%) = 0.559846 (0.0177357)
Neigh time (%) = 0.450202 (0.0142622)
Comm  time (%) = 5.15912 (0.163438)
Outpt time (%) = 0.00143295 (4.5395e-05)
Other time (%) = 3150.44 (99.8045)

Nlocal:    32.2 ave 382 max 0 min
Histogram: 32 2 3 1 0 0 0 0 1 1
Nghost:    6.975 ave 76 max 0 min
Histogram: 35 1 0 0 0 1 1 0 0 2
Neighs:    5.35 ave 75 max 0 min
Histogram: 35 0 3 0 0 0 0 0 0 2

Total # of neighbors = 214
Ave neighs/atom = 0.166149
Neighbor list builds = 571
Dangerous builds = 0
write_dump all custom dump.atom_info_ac_* id type x y z radius vx vy vz density #
run 205798
Setting up run at Sun Nov 27 15:23:03 2022

Memory usage per processor = 1084.21 Mbytes
    Step    Atoms         KinEng            CPU 
12347882     1288    0.036096626              0 
12553680     1284    0.036581297      3155.7698 
Loop time of 3155.77 on 40 procs for 205798 steps with 1284 atoms, finish time Sun Nov 27 16:15:38 2022


Pair  time (%) = 0.553858 (0.0175506)
Neigh time (%) = 0.457073 (0.0144837)
Comm  time (%) = 5.10235 (0.161683)
Outpt time (%) = 0.00115932 (3.67364e-05)
Other time (%) = 3149.66 (99.8062)

Nlocal:    32.1 ave 380 max 0 min
Histogram: 32 2 3 1 0 0 0 0 1 1
Nghost:    6.95 ave 73 max 0 min
Histogram: 35 1 0 0 0 1 0 1 0 2
Neighs:    5.525 ave 72 max 0 min
Histogram: 34 3 0 0 0 1 0 0 0 2

Total # of neighbors = 221
Ave neighs/atom = 0.172118
Neighbor list builds = 578
Dangerous builds = 0
write_dump all custom dump.atom_info_ac_* id type x y z radius vx vy vz density #
run 205798
Setting up run at Sun Nov 27 16:15:39 2022

Memory usage per processor = 1084.21 Mbytes
    Step    Atoms         KinEng            CPU 
12553680     1284    0.036581297              0 
12759478     1283    0.037151158      3158.7185 
Loop time of 3158.72 on 40 procs for 205798 steps with 1283 atoms, finish time Sun Nov 27 17:08:17 2022


Pair  time (%) = 0.547966 (0.0173477)
Neigh time (%) = 0.455978 (0.0144355)
Comm  time (%) = 4.73558 (0.149921)
Outpt time (%) = 0.00149688 (4.73888e-05)
Other time (%) = 3152.98 (99.8182)

Nlocal:    32.075 ave 380 max 0 min
Histogram: 32 2 3 1 0 0 0 0 1 1
Nghost:    6.95 ave 84 max 0 min
Histogram: 36 0 0 0 0 2 0 0 1 1
Neighs:    5.3 ave 69 max 0 min
Histogram: 34 2 1 0 1 0 0 0 0 2

Total # of neighbors = 212
Ave neighs/atom = 0.165238
Neighbor list builds = 578
Dangerous builds = 0
write_dump all custom dump.atom_info_ac_* id type x y z radius vx vy vz density #
run 205798
Setting up run at Sun Nov 27 17:08:17 2022

Memory usage per processor = 1084.21 Mbytes
    Step    Atoms         KinEng            CPU 
12759478     1283    0.037151158              0 
12965276     1282    0.037700261      3176.4981 
Loop time of 3176.5 on 40 procs for 205798 steps with 1282 atoms, finish time Sun Nov 27 18:01:14 2022


Pair  time (%) = 0.550713 (0.0173371)
Neigh time (%) = 0.464841 (0.0146338)
Comm  time (%) = 4.22413 (0.132981)
Outpt time (%) = 0.00141721 (4.46156e-05)
Other time (%) = 3171.26 (99.835)

Nlocal:    32.05 ave 378 max 0 min
Histogram: 32 2 2 2 0 0 0 0 1 1
Nghost:    6.95 ave 72 max 0 min
Histogram: 35 0 1 0 0 0 1 1 0 2
Neighs:    5.125 ave 68 max 0 min
Histogram: 33 3 1 1 0 0 0 0 0 2

Total # of neighbors = 205
Ave neighs/atom = 0.159906
Neighbor list builds = 587
Dangerous builds = 0
write_dump all custom dump.atom_info_ac_* id type x y z radius vx vy vz density #
run 205798
Setting up run at Sun Nov 27 18:01:14 2022

Memory usage per processor = 1084.21 Mbytes
    Step    Atoms         KinEng            CPU 
12965276     1282    0.037700261              0 
13171074     1280    0.038330417      3166.0441 
Loop time of 3166.04 on 40 procs for 205798 steps with 1280 atoms, finish time Sun Nov 27 18:54:00 2022


Pair  time (%) = 0.550694 (0.0173938)
Neigh time (%) = 0.466612 (0.014738)
Comm  time (%) = 4.59335 (0.145082)
Outpt time (%) = 0.00126718 (4.00241e-05)
Other time (%) = 3160.43 (99.8227)

Nlocal:    32 ave 380 max 0 min
Histogram: 32 2 2 2 0 0 0 0 1 1
Nghost:    6.925 ave 71 max 0 min
Histogram: 35 0 1 0 0 0 1 1 0 2
Neighs:    5.2 ave 70 max 0 min
Histogram: 34 1 2 1 0 0 0 0 0 2

Total # of neighbors = 208
Ave neighs/atom = 0.1625
Neighbor list builds = 590
Dangerous builds = 0
write_dump all custom dump.atom_info_ac_* id type x y z radius vx vy vz density #
run 205798
Setting up run at Sun Nov 27 18:54:00 2022

Memory usage per processor = 1084.21 Mbytes
    Step    Atoms         KinEng            CPU 
13171074     1280    0.038330417              0 
13376872     1280    0.038868503      3209.7605 
Loop time of 3209.76 on 40 procs for 205798 steps with 1280 atoms, finish time Sun Nov 27 19:47:30 2022


Pair  time (%) = 0.552112 (0.017201)
Neigh time (%) = 0.464789 (0.0144805)
Comm  time (%) = 5.27203 (0.16425)
Outpt time (%) = 0.00134193 (4.18077e-05)
Other time (%) = 3203.47 (99.804)

Nlocal:    32 ave 379 max 0 min
Histogram: 32 2 2 2 0 0 0 0 1 1
Nghost:    7.05 ave 75 max 0 min
Histogram: 35 1 0 0 0 0 2 0 0 2
Neighs:    5.45 ave 70 max 0 min
Histogram: 34 1 1 1 1 0 0 0 0 2

Total # of neighbors = 218
Ave neighs/atom = 0.170313
Neighbor list builds = 588
Dangerous builds = 0
write_dump all custom dump.atom_info_ac_* id type x y z radius vx vy vz density #
run 205798
Setting up run at Sun Nov 27 19:47:30 2022

Memory usage per processor = 1084.21 Mbytes
    Step    Atoms         KinEng            CPU 
13376872     1280    0.038868503              0 
13582670     1280    0.039726862      3154.2995 
Loop time of 3154.3 on 40 procs for 205798 steps with 1280 atoms, finish time Sun Nov 27 20:40:04 2022


Pair  time (%) = 0.555623 (0.0176148)
Neigh time (%) = 0.464842 (0.0147368)
Comm  time (%) = 5.03826 (0.159727)
Outpt time (%) = 0.00143976 (4.56444e-05)
Other time (%) = 3148.24 (99.8079)

Nlocal:    32 ave 374 max 0 min
Histogram: 32 1 3 2 0 0 0 0 1 1
Nghost:    7.375 ave 79 max 0 min
Histogram: 35 1 0 0 0 0 1 1 1 1
Neighs:    5.75 ave 70 max 0 min
Histogram: 33 3 0 2 0 0 0 0 0 2

Total # of neighbors = 230
Ave neighs/atom = 0.179688
Neighbor list builds = 589
Dangerous builds = 0
write_dump all custom dump.atom_info_ac_* id type x y z radius vx vy vz density #
run 205798
Setting up run at Sun Nov 27 20:40:04 2022

Memory usage per processor = 1084.21 Mbytes
    Step    Atoms         KinEng            CPU 
13582670     1280    0.039726862              0 
13788468     1279    0.040672422      3164.7355 
Loop time of 3164.74 on 40 procs for 205798 steps with 1279 atoms, finish time Sun Nov 27 21:32:49 2022


Pair  time (%) = 0.558853 (0.0176588)
Neigh time (%) = 0.466824 (0.0147508)
Comm  time (%) = 5.10598 (0.16134)
Outpt time (%) = 0.00112749 (3.56266e-05)
Other time (%) = 3158.6 (99.8062)

Nlocal:    31.975 ave 377 max 0 min
Histogram: 32 0 6 0 0 0 0 0 1 1
Nghost:    7.4 ave 69 max 0 min
Histogram: 35 0 1 0 0 0 0 1 1 2
Neighs:    5.6 ave 69 max 0 min
Histogram: 32 3 2 1 0 0 0 0 0 2

Total # of neighbors = 224
Ave neighs/atom = 0.175137
Neighbor list builds = 591
Dangerous builds = 0
write_dump all custom dump.atom_info_ac_* id type x y z radius vx vy vz density #
run 205798
Setting up run at Sun Nov 27 21:32:49 2022

Memory usage per processor = 1084.21 Mbytes
    Step    Atoms         KinEng            CPU 
13788468     1279    0.040672422              0 
13994266     1276    0.040478893      3166.0357 
Loop time of 3166.04 on 40 procs for 205798 steps with 1276 atoms, finish time Sun Nov 27 22:25:35 2022


Pair  time (%) = 0.561575 (0.0177375)
Neigh time (%) = 0.46447 (0.0146704)
Comm  time (%) = 5.46211 (0.172522)
Outpt time (%) = 0.00130634 (4.12611e-05)
Other time (%) = 3159.55 (99.795)

Nlocal:    31.9 ave 380 max 0 min
Histogram: 32 3 1 2 0 0 0 0 1 1
Nghost:    7.1 ave 77 max 0 min
Histogram: 36 0 0 0 0 0 1 1 0 2
Neighs:    5.25 ave 66 max 0 min
Histogram: 33 2 2 0 1 0 0 0 1 1

Total # of neighbors = 210
Ave neighs/atom = 0.164577
Neighbor list builds = 589
Dangerous builds = 0
write_dump all custom dump.atom_info_ac_* id type x y z radius vx vy vz density #
run 205798
Setting up run at Sun Nov 27 22:25:35 2022

Memory usage per processor = 1084.21 Mbytes
    Step    Atoms         KinEng            CPU 
13994266     1276    0.040478893              0 
14200064     1273    0.040767174      3136.0759 
Loop time of 3136.08 on 40 procs for 205798 steps with 1273 atoms, finish time Sun Nov 27 23:17:52 2022


Pair  time (%) = 0.559517 (0.0178413)
Neigh time (%) = 0.485446 (0.0154794)
Comm  time (%) = 5.36144 (0.17096)
Outpt time (%) = 0.00135542 (4.32203e-05)
Other time (%) = 3129.67 (99.7957)

Nlocal:    31.825 ave 378 max 0 min
Histogram: 32 2 3 1 0 0 0 0 1 1
Nghost:    7.2 ave 71 max 0 min
Histogram: 34 1 1 0 0 0 0 2 1 1
Neighs:    5.175 ave 64 max 0 min
Histogram: 34 1 1 1 1 0 0 0 0 2

Total # of neighbors = 207
Ave neighs/atom = 0.162608
Neighbor list builds = 614
Dangerous builds = 0
write_dump all custom dump.atom_info_ac_* id type x y z radius vx vy vz density #
run 205798
Setting up run at Sun Nov 27 23:17:52 2022

Memory usage per processor = 1084.21 Mbytes
    Step    Atoms         KinEng            CPU 
14200064     1273    0.040767174              0 
14405862     1273    0.041334755      3133.8412 
Loop time of 3133.84 on 40 procs for 205798 steps with 1273 atoms, finish time Mon Nov 28 00:10:06 2022


Pair  time (%) = 0.559784 (0.0178626)
Neigh time (%) = 0.501625 (0.0160067)
Comm  time (%) = 5.41283 (0.172722)
Outpt time (%) = 0.00138429 (4.41722e-05)
Other time (%) = 3127.37 (99.7934)

Nlocal:    31.825 ave 377 max 0 min
Histogram: 32 1 4 1 0 0 0 0 1 1
Nghost:    7.35 ave 70 max 0 min
Histogram: 32 3 1 0 0 0 0 1 2 1
Neighs:    5.7 ave 65 max 0 min
Histogram: 33 3 1 0 0 0 0 1 0 2

Total # of neighbors = 228
Ave neighs/atom = 0.179104
Neighbor list builds = 633
Dangerous builds = 0
write_dump all custom dump.atom_info_ac_* id type x y z radius vx vy vz density #
run 205798
Setting up run at Mon Nov 28 00:10:06 2022

Memory usage per processor = 1084.21 Mbytes
    Step    Atoms         KinEng            CPU 
14405862     1273    0.041334755              0 
14611660     1268     0.04200338      3171.1506 
Loop time of 3171.15 on 40 procs for 205798 steps with 1268 atoms, finish time Mon Nov 28 01:02:57 2022


Pair  time (%) = 0.556315 (0.017543)
Neigh time (%) = 0.501169 (0.015804)
Comm  time (%) = 5.62298 (0.177317)
Outpt time (%) = 0.00138319 (4.36178e-05)
Other time (%) = 3164.47 (99.7893)

Nlocal:    31.7 ave 376 max 0 min
Histogram: 32 2 3 1 0 0 0 0 1 1
Nghost:    7.45 ave 74 max 0 min
Histogram: 35 0 1 0 0 0 0 2 1 1
Neighs:    5.125 ave 63 max 0 min
Histogram: 33 2 1 1 1 0 0 0 0 2

Total # of neighbors = 205
Ave neighs/atom = 0.161672
Neighbor list builds = 632
Dangerous builds = 0
write_dump all custom dump.atom_info_ac_* id type x y z radius vx vy vz density #
run 205798
Setting up run at Mon Nov 28 01:02:57 2022

Memory usage per processor = 1084.21 Mbytes
    Step    Atoms         KinEng            CPU 
14611660     1268     0.04200338              0 
14817458     1267    0.042295863      3171.9883 
Loop time of 3171.99 on 40 procs for 205798 steps with 1267 atoms, finish time Mon Nov 28 01:55:49 2022


Pair  time (%) = 0.557622 (0.0175796)
Neigh time (%) = 0.500486 (0.0157783)
Comm  time (%) = 4.69523 (0.148022)
Outpt time (%) = 0.00105419 (3.32344e-05)
Other time (%) = 3166.23 (99.8186)

Nlocal:    31.675 ave 378 max 0 min
Histogram: 32 1 4 1 0 0 0 0 1 1
Nghost:    7.325 ave 76 max 0 min
Histogram: 35 0 1 0 0 0 0 3 0 1
Neighs:    5.4 ave 60 max 0 min
Histogram: 33 2 2 0 0 0 0 1 0 2

Total # of neighbors = 216
Ave neighs/atom = 0.170481
Neighbor list builds = 632
Dangerous builds = 0
write_dump all custom dump.atom_info_ac_* id type x y z radius vx vy vz density #
run 205798
Setting up run at Mon Nov 28 01:55:49 2022

Memory usage per processor = 1084.21 Mbytes
    Step    Atoms         KinEng            CPU 
14817458     1267    0.042295863              0 
15023256     1266    0.042641788       3147.778 
Loop time of 3147.79 on 40 procs for 205798 steps with 1266 atoms, finish time Mon Nov 28 02:48:17 2022


Pair  time (%) = 0.548966 (0.0174397)
Neigh time (%) = 0.50195 (0.0159461)
Comm  time (%) = 5.21448 (0.165655)
Outpt time (%) = 0.0233157 (0.000740702)
Other time (%) = 3141.5 (99.8002)

Nlocal:    31.65 ave 372 max 0 min
Histogram: 32 1 4 1 0 0 0 0 1 1
Nghost:    7.35 ave 72 max 0 min
Histogram: 36 0 0 0 0 0 0 1 1 2
Neighs:    4.95 ave 59 max 0 min
Histogram: 33 4 0 0 0 0 0 1 0 2

Total # of neighbors = 198
Ave neighs/atom = 0.156398
Neighbor list builds = 633
Dangerous builds = 0
write_dump all custom dump.atom_info_ac_* id type x y z radius vx vy vz density #
run 205798
Setting up run at Mon Nov 28 02:48:17 2022

Memory usage per processor = 1084.21 Mbytes
    Step    Atoms         KinEng            CPU 
15023256     1266    0.042641788              0 
15229054     1264    0.043168577      3148.4511 
Loop time of 3148.45 on 40 procs for 205798 steps with 1264 atoms, finish time Mon Nov 28 03:40:46 2022


Pair  time (%) = 0.555043 (0.0176291)
Neigh time (%) = 0.502085 (0.015947)
Comm  time (%) = 5.52233 (0.175398)
Outpt time (%) = 0.00146679 (4.65877e-05)
Other time (%) = 3141.87 (99.791)

Nlocal:    31.6 ave 371 max 0 min
Histogram: 32 0 5 1 0 0 0 0 1 1
Nghost:    7.25 ave 78 max 0 min
Histogram: 35 1 0 0 0 0 1 2 0 1
Neighs:    5.375 ave 58 max 0 min
Histogram: 33 2 1 0 1 0 0 1 1 1

Total # of neighbors = 215
Ave neighs/atom = 0.170095
Neighbor list builds = 632
Dangerous builds = 0
write_dump all custom dump.atom_info_ac_* id type x y z radius vx vy vz density #
run 205798
Setting up run at Mon Nov 28 03:40:46 2022

Memory usage per processor = 1084.21 Mbytes
    Step    Atoms         KinEng            CPU 
15229054     1264    0.043168577              0 
15434852     1262    0.043834471       3174.166 
Loop time of 3174.17 on 40 procs for 205798 steps with 1262 atoms, finish time Mon Nov 28 04:33:40 2022


Pair  time (%) = 0.557562 (0.0175656)
Neigh time (%) = 0.477417 (0.0150407)
Comm  time (%) = 5.46596 (0.172202)
Outpt time (%) = 0.00136323 (4.29476e-05)
Other time (%) = 3167.66 (99.7951)

Nlocal:    31.55 ave 367 max 0 min
Histogram: 32 1 3 2 0 0 0 0 1 1
Nghost:    7.75 ave 83 max 0 min
Histogram: 34 2 0 0 0 0 2 1 0 1
Neighs:    5.2 ave 70 max 0 min
Histogram: 34 1 2 0 1 0 0 1 0 1

Total # of neighbors = 208
Ave neighs/atom = 0.164818
Neighbor list builds = 603
Dangerous builds = 0
write_dump all custom dump.atom_info_ac_* id type x y z radius vx vy vz density #
run 205798
Setting up run at Mon Nov 28 04:33:40 2022

Memory usage per processor = 1084.21 Mbytes
    Step    Atoms         KinEng            CPU 
15434852     1262    0.043834471              0 
15640650     1260    0.044048168      3168.5867 
Loop time of 3168.59 on 40 procs for 205798 steps with 1260 atoms, finish time Mon Nov 28 05:26:28 2022


Pair  time (%) = 0.565988 (0.0178625)
Neigh time (%) = 0.445492 (0.0140596)
Comm  time (%) = 5.35583 (0.169029)
Outpt time (%) = 0.000747192 (2.35812e-05)
Other time (%) = 3162.22 (99.799)

Nlocal:    31.5 ave 362 max 0 min
Histogram: 32 1 4 0 1 0 0 0 1 1
Nghost:    7.9 ave 93 max 0 min
Histogram: 36 0 0 0 0 1 1 1 0 1
Neighs:    5.525 ave 70 max 0 min
Histogram: 34 1 2 0 1 0 0 0 0 2

Total # of neighbors = 221
Ave neighs/atom = 0.175397
Neighbor list builds = 566
Dangerous builds = 0
write_dump all custom dump.atom_info_ac_* id type x y z radius vx vy vz density #
run 205798
Setting up run at Mon Nov 28 05:26:29 2022

Memory usage per processor = 1084.21 Mbytes
    Step    Atoms         KinEng            CPU 
15640650     1260    0.044048168              0 
15846448     1259    0.044465596      3184.4199 
Loop time of 3184.42 on 40 procs for 205798 steps with 1259 atoms, finish time Mon Nov 28 06:19:33 2022


Pair  time (%) = 0.559351 (0.0175653)
Neigh time (%) = 0.45576 (0.0143122)
Comm  time (%) = 5.25087 (0.164893)
Outpt time (%) = 0.00147745 (4.63963e-05)
Other time (%) = 3178.15 (99.8032)

Nlocal:    31.475 ave 361 max 0 min
Histogram: 32 1 4 1 0 0 0 0 1 1
Nghost:    8.075 ave 84 max 0 min
Histogram: 35 0 1 0 0 0 1 1 1 1
Neighs:    5.4 ave 69 max 0 min
Histogram: 33 2 0 3 0 0 0 0 1 1

Total # of neighbors = 216
Ave neighs/atom = 0.171565
Neighbor list builds = 578
Dangerous builds = 0
write_dump all custom dump.atom_info_ac_* id type x y z radius vx vy vz density #
run 205798
Setting up run at Mon Nov 28 06:19:33 2022

Memory usage per processor = 1084.21 Mbytes
    Step    Atoms         KinEng            CPU 
15846448     1259    0.044465596              0 
16052246     1257    0.045271646      3154.5932 
Loop time of 3154.59 on 40 procs for 205798 steps with 1257 atoms, finish time Mon Nov 28 07:12:08 2022


Pair  time (%) = 0.559152 (0.017725)
Neigh time (%) = 0.467759 (0.0148279)
Comm  time (%) = 5.31691 (0.168545)
Outpt time (%) = 0.00111944 (3.54861e-05)
Other time (%) = 3148.25 (99.7989)

Nlocal:    31.425 ave 357 max 0 min
Histogram: 32 1 3 2 0 0 0 0 1 1
Nghost:    8 ave 81 max 0 min
Histogram: 35 1 0 0 0 0 1 1 0 2
Neighs:    5.3 ave 64 max 0 min
Histogram: 32 3 2 0 1 0 0 0 0 2

Total # of neighbors = 212
Ave neighs/atom = 0.168656
Neighbor list builds = 592
Dangerous builds = 0
write_dump all custom dump.atom_info_ac_* id type x y z radius vx vy vz density #
run 205798
Setting up run at Mon Nov 28 07:12:08 2022

Memory usage per processor = 1084.21 Mbytes
    Step    Atoms         KinEng            CPU 
16052246     1257    0.045271646              0 
16258044     1254    0.045663526      3181.9622 
Loop time of 3181.96 on 40 procs for 205798 steps with 1254 atoms, finish time Mon Nov 28 08:05:10 2022


Pair  time (%) = 0.565883 (0.0177841)
Neigh time (%) = 0.476956 (0.0149894)
Comm  time (%) = 5.64141 (0.177293)
Outpt time (%) = 0.00154885 (4.86761e-05)
Other time (%) = 3175.28 (99.7899)

Nlocal:    31.35 ave 355 max 0 min
Histogram: 32 2 2 2 0 0 0 0 1 1
Nghost:    8.075 ave 86 max 0 min
Histogram: 35 0 1 0 0 0 2 0 1 1
Neighs:    5.6 ave 63 max 0 min
Histogram: 33 1 2 1 0 0 1 0 1 1

Total # of neighbors = 224
Ave neighs/atom = 0.178628
Neighbor list builds = 605
Dangerous builds = 0
write_dump all custom dump.atom_info_ac_* id type x y z radius vx vy vz density #
run 205798
Setting up run at Mon Nov 28 08:05:10 2022

Memory usage per processor = 1084.21 Mbytes
    Step    Atoms         KinEng            CPU 
16258044     1254    0.045663526              0 
16463842     1252    0.046146773      3170.3656 
Loop time of 3170.37 on 40 procs for 205798 steps with 1252 atoms, finish time Mon Nov 28 08:58:00 2022


Pair  time (%) = 0.57444 (0.0181191)
Neigh time (%) = 0.476472 (0.0150289)
Comm  time (%) = 5.51728 (0.174027)
Outpt time (%) = 0.00132354 (4.17473e-05)
Other time (%) = 3163.8 (99.7928)

Nlocal:    31.3 ave 350 max 0 min
Histogram: 32 1 3 1 1 0 0 0 1 1
Nghost:    8.525 ave 82 max 0 min
Histogram: 34 1 1 0 0 0 2 0 0 2
Neighs:    5.3 ave 60 max 0 min
Histogram: 33 3 0 0 1 0 1 0 1 1

[...]


Pair  time (%) = 0.664187 (0.0207276)
Neigh time (%) = 0.497735 (0.0155331)
Comm  time (%) = 5.31955 (0.16601)
Outpt time (%) = 0.000717798 (2.24007e-05)
Other time (%) = 3197.87 (99.7977)

Nlocal:    28.05 ave 229 max 0 min
Histogram: 32 0 0 2 1 3 0 0 0 2
Nghost:    5.9 ave 67 max 0 min
Histogram: 32 4 1 1 0 0 0 0 0 2
Neighs:    4.75 ave 44 max 0 min
Histogram: 32 1 1 2 0 0 2 0 1 1

Total # of neighbors = 190
Ave neighs/atom = 0.16934
Neighbor list builds = 622
Dangerous builds = 0
write_dump all custom dump.atom_info_ac_* id type x y z radius vx vy vz density #
run 205798
Setting up run at Fri Dec  2 02:07:47 2022

Memory usage per processor = 1084.21 Mbytes
    Step    Atoms         KinEng            CPU 
37043675     1122    0.066523798              0 
37249473     1121    0.066673317      3155.2293 
Loop time of 3155.23 on 40 procs for 205798 steps with 1121 atoms, finish time Fri Dec  2 03:00:22 2022


Pair  time (%) = 0.651924 (0.0206617)
Neigh time (%) = 0.484595 (0.0153585)
Comm  time (%) = 5.37262 (0.170277)
Outpt time (%) = 0.00147765 (4.68319e-05)
Other time (%) = 3148.72 (99.7937)

Nlocal:    28.025 ave 226 max 0 min
Histogram: 32 0 0 2 2 1 1 0 0 2
Nghost:    6.125 ave 60 max 0 min
Histogram: 33 1 1 1 1 1 0 1 0 1
Neighs:    4.85 ave 57 max 0 min
Histogram: 32 2 2 2 0 0 0 0 1 1

Total # of neighbors = 194
Ave neighs/atom = 0.17306
Neighbor list builds = 607
Dangerous builds = 0
write_dump all custom dump.atom_info_ac_* id type x y z radius vx vy vz density #
run 205798
Setting up run at Fri Dec  2 03:00:22 2022

Memory usage per processor = 1084.21 Mbytes
    Step    Atoms         KinEng            CPU 
37249473     1121    0.066673317              0 
37455271     1119    0.066363631      3176.2273 
Loop time of 3176.23 on 40 procs for 205798 steps with 1119 atoms, finish time Fri Dec  2 03:53:18 2022


Pair  time (%) = 0.658892 (0.0207445)
Neigh time (%) = 0.461592 (0.0145327)
Comm  time (%) = 5.1562 (0.162337)
Outpt time (%) = 0.00161943 (5.09859e-05)
Other time (%) = 3169.95 (99.8023)

Nlocal:    27.975 ave 223 max 0 min
Histogram: 32 0 1 1 0 3 1 0 0 2
Nghost:    6.15 ave 63 max 0 min
Histogram: 32 2 1 2 0 1 0 0 1 1
Neighs:    4.95 ave 61 max 0 min
Histogram: 33 3 0 1 1 0 0 1 0 1

Total # of neighbors = 198
Ave neighs/atom = 0.176944
Neighbor list builds = 579
Dangerous builds = 0
write_dump all custom dump.atom_info_ac_* id type x y z radius vx vy vz density #
run 205798
Setting up run at Fri Dec  2 03:53:18 2022

Memory usage per processor = 1084.21 Mbytes
    Step    Atoms         KinEng            CPU 
37455271     1119    0.066363631              0 
37661069     1119    0.066551654      3201.5612 
Loop time of 3201.56 on 40 procs for 205798 steps with 1119 atoms, finish time Fri Dec  2 04:46:40 2022


Pair  time (%) = 0.660081 (0.0206175)
Neigh time (%) = 0.461702 (0.0144212)
Comm  time (%) = 5.41488 (0.169132)
Outpt time (%) = 0.00175108 (5.46946e-05)
Other time (%) = 3195.02 (99.7958)

Nlocal:    27.975 ave 223 max 0 min
Histogram: 32 0 0 0 4 1 0 1 0 2
Nghost:    5.8 ave 54 max 0 min
Histogram: 30 3 2 1 1 1 0 0 1 1
Neighs:    5.05 ave 60 max 0 min
Histogram: 32 2 2 1 1 0 0 1 0 1

Total # of neighbors = 202
Ave neighs/atom = 0.180518
Neighbor list builds = 581
Dangerous builds = 0
write_dump all custom dump.atom_info_ac_* id type x y z radius vx vy vz density #
run 205798
Setting up run at Fri Dec  2 04:46:40 2022

Memory usage per processor = 1084.21 Mbytes
    Step    Atoms         KinEng            CPU 
37661069     1119    0.066551654              0 
37866867     1117    0.066434005      3207.3589 
Loop time of 3207.36 on 40 procs for 205798 steps with 1117 atoms, finish time Fri Dec  2 05:40:07 2022


Pair  time (%) = 0.660496 (0.0205932)
Neigh time (%) = 0.469827 (0.0146484)
Comm  time (%) = 5.45041 (0.169934)
Outpt time (%) = 0.00127463 (3.97409e-05)
Other time (%) = 3200.78 (99.7948)

Nlocal:    27.925 ave 223 max 0 min
Histogram: 32 0 1 1 0 3 1 0 0 2
Nghost:    5.6 ave 56 max 0 min
Histogram: 31 3 1 2 0 0 1 1 0 1
Neighs:    5.125 ave 69 max 0 min
Histogram: 32 3 1 1 1 0 1 0 0 1

Total # of neighbors = 205
Ave neighs/atom = 0.183527
Neighbor list builds = 589
Dangerous builds = 0
write_dump all custom dump.atom_info_ac_* id type x y z radius vx vy vz density #
run 205798
Setting up run at Fri Dec  2 05:40:07 2022

Memory usage per processor = 1084.21 Mbytes
    Step    Atoms         KinEng            CPU 
37866867     1117    0.066434005              0 
38072665     1117    0.066479215      3151.5929 
Loop time of 3151.59 on 40 procs for 205798 steps with 1117 atoms, finish time Fri Dec  2 06:32:39 2022


Pair  time (%) = 0.662726 (0.0210283)
Neigh time (%) = 0.469871 (0.014909)
Comm  time (%) = 5.26235 (0.166974)
Outpt time (%) = 0.00140785 (4.46711e-05)
Other time (%) = 3145.2 (99.797)

Nlocal:    27.925 ave 222 max 0 min
Histogram: 32 0 0 1 4 0 0 1 0 2
Nghost:    5.625 ave 56 max 0 min
Histogram: 32 1 2 2 1 0 0 0 1 1
Neighs:    4.975 ave 63 max 0 min
Histogram: 32 4 0 1 1 0 1 0 0 1

Total # of neighbors = 199
Ave neighs/atom = 0.178156
Neighbor list builds = 589
Dangerous builds = 0
write_dump all custom dump.atom_info_ac_* id type x y z radius vx vy vz density #
run 205798
Setting up run at Fri Dec  2 06:32:39 2022

Memory usage per processor = 1084.21 Mbytes
    Step    Atoms         KinEng            CPU 
38072665     1117    0.066479215              0 
38278463     1116    0.066565815      3175.7509 
Loop time of 3175.76 on 40 procs for 205798 steps with 1116 atoms, finish time Fri Dec  2 07:25:35 2022


Pair  time (%) = 0.658657 (0.0207401)
Neigh time (%) = 0.47186 (0.0148582)
Comm  time (%) = 5.25573 (0.165495)
Outpt time (%) = 0.021777 (0.000685725)
Other time (%) = 3169.35 (99.7982)

Nlocal:    27.9 ave 222 max 0 min
Histogram: 32 0 0 2 1 2 1 0 0 2
Nghost:    5.175 ave 52 max 0 min
Histogram: 31 3 1 2 0 1 0 1 0 1
Neighs:    4.875 ave 53 max 0 min
Histogram: 32 2 1 3 0 0 0 0 0 2

Total # of neighbors = 195
Ave neighs/atom = 0.174731
Neighbor list builds = 591
Dangerous builds = 0
write_dump all custom dump.atom_info_ac_* id type x y z radius vx vy vz density #
run 205798
Setting up run at Fri Dec  2 07:25:35 2022

Memory usage per processor = 1084.21 Mbytes
    Step    Atoms         KinEng            CPU 
38278463     1116    0.066565815              0 
38484261     1116    0.066891499      3207.6943 
Loop time of 3207.71 on 40 procs for 205798 steps with 1116 atoms, finish time Fri Dec  2 08:19:03 2022


Pair  time (%) = 0.66441 (0.0207129)
Neigh time (%) = 0.473271 (0.0147542)
Comm  time (%) = 5.48872 (0.171111)
Outpt time (%) = 0.0222904 (0.000694902)
Other time (%) = 3201.06 (99.7927)

Nlocal:    27.9 ave 222 max 0 min
Histogram: 32 0 0 3 1 1 0 1 0 2
Nghost:    5.725 ave 73 max 0 min
Histogram: 33 1 3 1 0 1 0 0 0 1
Neighs:    5.2 ave 73 max 0 min
Histogram: 32 5 0 1 0 0 1 0 0 1

Total # of neighbors = 208
Ave neighs/atom = 0.18638
Neighbor list builds = 594
Dangerous builds = 0
write_dump all custom dump.atom_info_ac_* id type x y z radius vx vy vz density #
run 205798
Setting up run at Fri Dec  2 08:19:03 2022

Memory usage per processor = 1084.21 Mbytes
    Step    Atoms         KinEng            CPU 
38484261     1116    0.066891499              0 
38690059     1114    0.066579949      3209.1879 
Loop time of 3209.21 on 40 procs for 205798 steps with 1114 atoms, finish time Fri Dec  2 09:12:32 2022


Pair  time (%) = 0.667427 (0.0207972)
Neigh time (%) = 0.471638 (0.0146964)
Comm  time (%) = 5.52901 (0.172286)
Outpt time (%) = 0.0238555 (0.000743346)
Other time (%) = 3202.52 (99.7915)

Nlocal:    27.85 ave 222 max 0 min
Histogram: 32 0 0 2 1 1 2 0 0 2
Nghost:    5.45 ave 49 max 0 min
Histogram: 30 2 1 4 1 0 0 0 1 1
Neighs:    5.15 ave 61 max 0 min
Histogram: 32 2 2 2 0 0 0 0 1 1

Total # of neighbors = 206
Ave neighs/atom = 0.184919
Neighbor list builds = 591
Dangerous builds = 0
write_dump all custom dump.atom_info_ac_* id type x y z radius vx vy vz density #
run 205798
Setting up run at Fri Dec  2 09:12:33 2022

Memory usage per processor = 1084.21 Mbytes
    Step    Atoms         KinEng            CPU 
38690059     1114    0.066579949              0 
38895857     1114    0.066639265      3173.4707 
Loop time of 3173.47 on 40 procs for 205798 steps with 1114 atoms, finish time Fri Dec  2 10:05:26 2022


Pair  time (%) = 0.659576 (0.020784)
Neigh time (%) = 0.47265 (0.0148938)
Comm  time (%) = 5.33534 (0.168123)
Outpt time (%) = 0.00109875 (3.4623e-05)
Other time (%) = 3167 (99.7962)

Nlocal:    27.85 ave 222 max 0 min
Histogram: 32 0 0 1 2 2 1 0 0 2
Nghost:    5.8 ave 64 max 0 min
Histogram: 32 4 0 2 0 0 0 0 0 2
Neighs:    5.175 ave 56 max 0 min
Histogram: 32 2 1 1 1 1 0 1 0 1

Total # of neighbors = 207
Ave neighs/atom = 0.185817
Neighbor list builds = 592
Dangerous builds = 0
write_dump all custom dump.atom_info_ac_* id type x y z radius vx vy vz density #
run 205798
Setting up run at Fri Dec  2 10:05:26 2022

Memory usage per processor = 1084.21 Mbytes
    Step    Atoms         KinEng            CPU 
38895857     1114    0.066639265              0 
39101655     1113    0.066655607      3272.2295 
Loop time of 3272.23 on 40 procs for 205798 steps with 1113 atoms, finish time Fri Dec  2 10:59:59 2022


Pair  time (%) = 0.666371 (0.0203644)
Neigh time (%) = 0.470388 (0.0143752)
Comm  time (%) = 5.20311 (0.159008)
Outpt time (%) = 0.00171482 (5.24052e-05)
Other time (%) = 3265.89 (99.8062)

Nlocal:    27.825 ave 217 max 0 min
Histogram: 32 0 0 1 2 2 1 0 0 2
Nghost:    6.05 ave 59 max 0 min
Histogram: 28 5 2 2 0 1 0 1 0 1
Neighs:    5.075 ave 55 max 0 min
Histogram: 32 2 0 1 2 1 1 0 0 1

Total # of neighbors = 203
Ave neighs/atom = 0.18239
Neighbor list builds = 589
Dangerous builds = 0
write_dump all custom dump.atom_info_ac_* id type x y z radius vx vy vz density #
run 205798
Setting up run at Fri Dec  2 10:59:59 2022

Memory usage per processor = 1084.21 Mbytes
    Step    Atoms         KinEng            CPU 
39101655     1113    0.066655607              0 
39307453     1113    0.066707632      3277.1703 
Loop time of 3277.17 on 40 procs for 205798 steps with 1113 atoms, finish time Fri Dec  2 11:54:36 2022


Pair  time (%) = 0.674994 (0.0205969)
Neigh time (%) = 0.467751 (0.014273)
Comm  time (%) = 5.47836 (0.167167)
Outpt time (%) = 0.00175209 (5.34636e-05)
Other time (%) = 3270.55 (99.7979)

Nlocal:    27.825 ave 216 max 0 min
Histogram: 32 0 0 1 2 2 1 0 0 2
Nghost:    5.8 ave 65 max 0 min
Histogram: 32 3 2 1 0 0 0 0 1 1
Neighs:    5.05 ave 56 max 0 min
Histogram: 32 2 2 0 1 1 0 0 1 1

Total # of neighbors = 202
Ave neighs/atom = 0.181491
Neighbor list builds = 587
Dangerous builds = 0
write_dump all custom dump.atom_info_ac_* id type x y z radius vx vy vz density #
run 205798
Setting up run at Fri Dec  2 11:54:36 2022

Memory usage per processor = 1084.21 Mbytes
    Step    Atoms         KinEng            CPU 
39307453     1113    0.066707632              0 
39513251     1112    0.066758726      3203.8368 
Loop time of 3203.84 on 40 procs for 205798 steps with 1112 atoms, finish time Fri Dec  2 12:48:00 2022


Pair  time (%) = 0.67397 (0.0210363)
Neigh time (%) = 0.468376 (0.0146192)
Comm  time (%) = 5.38752 (0.168158)
Outpt time (%) = 0.00165986 (5.18086e-05)
Other time (%) = 3197.31 (99.7961)

Nlocal:    27.8 ave 214 max 0 min
Histogram: 32 0 1 0 2 2 0 1 0 2
Nghost:    5.625 ave 49 max 0 min
Histogram: 31 1 2 2 1 1 0 0 0 2
Neighs:    5.2 ave 46 max 0 min
Histogram: 32 3 0 0 1 0 0 1 0 3

Total # of neighbors = 208
Ave neighs/atom = 0.18705
Neighbor list builds = 589
Dangerous builds = 0
write_dump all custom dump.atom_info_ac_* id type x y z radius vx vy vz density #
run 205798
Setting up run at Fri Dec  2 12:48:00 2022

Memory usage per processor = 1084.21 Mbytes
    Step    Atoms         KinEng            CPU 
39513251     1112    0.066758726              0 
39719049     1112    0.067338052      3170.2309 
Loop time of 3170.23 on 40 procs for 205798 steps with 1112 atoms, finish time Fri Dec  2 13:40:50 2022


Pair  time (%) = 0.667203 (0.0210459)
Neigh time (%) = 0.47501 (0.0149834)
Comm  time (%) = 5.24447 (0.165429)
Outpt time (%) = 0.00148701 (4.69053e-05)
Other time (%) = 3163.84 (99.7985)

Nlocal:    27.8 ave 213 max 0 min
Histogram: 32 0 0 0 4 1 1 0 0 2
Nghost:    6.1 ave 55 max 0 min
Histogram: 30 2 1 3 1 1 0 1 0 1
Neighs:    5.15 ave 59 max 0 min
Histogram: 32 3 0 1 1 1 0 1 0 1

Total # of neighbors = 206
Ave neighs/atom = 0.185252
Neighbor list builds = 595
Dangerous builds = 0
write_dump all custom dump.atom_info_ac_* id type x y z radius vx vy vz density #
run 205798
Setting up run at Fri Dec  2 13:40:50 2022

Memory usage per processor = 1084.21 Mbytes
    Step    Atoms         KinEng            CPU 
39719049     1112    0.067338052              0 
39924847     1111    0.066790526      3252.1689 
Loop time of 3252.17 on 40 procs for 205798 steps with 1111 atoms, finish time Fri Dec  2 14:35:03 2022


Pair  time (%) = 0.669382 (0.0205826)
Neigh time (%) = 0.479668 (0.0147492)
Comm  time (%) = 5.24364 (0.161235)
Outpt time (%) = 0.00149661 (4.60188e-05)
Other time (%) = 3245.78 (99.8034)

Nlocal:    27.775 ave 211 max 0 min
Histogram: 32 0 0 1 2 2 1 0 0 2
Nghost:    5.45 ave 52 max 0 min
Histogram: 31 1 3 2 1 0 0 0 1 1
Neighs:    5.575 ave 56 max 0 min
Histogram: 32 3 0 1 0 1 0 0 2 1

Total # of neighbors = 223
Ave neighs/atom = 0.20072
Neighbor list builds = 601
Dangerous builds = 0
write_dump all custom dump.atom_info_ac_* id type x y z radius vx vy vz density #
run 205798
Setting up run at Fri Dec  2 14:35:03 2022

Memory usage per processor = 1084.21 Mbytes
    Step    Atoms         KinEng            CPU 
39924847     1111    0.066790526              0 
40130645     1111    0.066821475      3423.3466 
Loop time of 3423.35 on 40 procs for 205798 steps with 1111 atoms, finish time Fri Dec  2 15:32:06 2022


Pair  time (%) = 0.670101 (0.0195744)
Neigh time (%) = 0.481205 (0.0140566)
Comm  time (%) = 5.4316 (0.158663)
Outpt time (%) = 0.00167726 (4.89948e-05)
Other time (%) = 3416.76 (99.8077)

Nlocal:    27.775 ave 211 max 0 min
Histogram: 32 0 0 1 3 1 0 1 0 2
Nghost:    6.025 ave 48 max 0 min
Histogram: 28 3 3 1 1 2 0 0 1 1
Neighs:    5.3 ave 62 max 0 min
Histogram: 32 3 0 0 3 0 1 0 0 1

Total # of neighbors = 212
Ave neighs/atom = 0.190819
Neighbor list builds = 603
Dangerous builds = 0
write_dump all custom dump.atom_info_ac_* id type x y z radius vx vy vz density #
run 205798
Setting up run at Fri Dec  2 15:32:06 2022

Memory usage per processor = 1084.21 Mbytes
    Step    Atoms         KinEng            CPU 
40130645     1111    0.066821475              0 
40336443     1111     0.06698532      3365.6575 
Loop time of 3365.66 on 40 procs for 205798 steps with 1111 atoms, finish time Fri Dec  2 16:28:12 2022


Pair  time (%) = 0.675173 (0.0200607)
Neigh time (%) = 0.482024 (0.0143218)
Comm  time (%) = 5.52763 (0.164236)
Outpt time (%) = 0.00131877 (3.91832e-05)
Other time (%) = 3358.97 (99.8013)

Nlocal:    27.775 ave 210 max 0 min
Histogram: 32 0 0 0 2 4 0 0 0 2
Nghost:    5.75 ave 59 max 0 min
Histogram: 31 2 3 2 0 0 0 0 0 2
Neighs:    5.5 ave 54 max 0 min
Histogram: 32 1 1 1 0 3 0 0 1 1

Total # of neighbors = 220
Ave neighs/atom = 0.19802
Neighbor list builds = 603
Dangerous builds = 0
write_dump all custom dump.atom_info_ac_* id type x y z radius vx vy vz density #
run 205798
Setting up run at Fri Dec  2 16:28:21 2022

Memory usage per processor = 1084.21 Mbytes
    Step    Atoms         KinEng            CPU 
40336443     1111     0.06698532              0 
40542241     1110    0.066872049      3416.3971 
Loop time of 3416.4 on 40 procs for 205798 steps with 1110 atoms, finish time Fri Dec  2 17:25:18 2022


Pair  time (%) = 0.670904 (0.0196378)
Neigh time (%) = 0.481216 (0.0140855)
Comm  time (%) = 5.222 (0.152851)
Outpt time (%) = 0.00147241 (4.30982e-05)
Other time (%) = 3410.02 (99.8134)

Nlocal:    27.75 ave 209 max 0 min
Histogram: 31 1 0 0 4 1 0 1 0 2
Nghost:    5.625 ave 54 max 0 min
Histogram: 30 3 1 3 1 0 0 1 0 1
Neighs:    5.4 ave 68 max 0 min
Histogram: 32 3 0 2 1 1 0 0 0 1

Total # of neighbors = 216
Ave neighs/atom = 0.194595
Neighbor list builds = 602
Dangerous builds = 0
write_dump all custom dump.atom_info_ac_* id type x y z radius vx vy vz density #
run 205798
Setting up run at Fri Dec  2 17:25:18 2022

Memory usage per processor = 1084.21 Mbytes
    Step    Atoms         KinEng            CPU 
40542241     1110    0.066872049              0 
40748039     1110    0.066958114      3167.1966 
Loop time of 3167.2 on 40 procs for 205798 steps with 1110 atoms, finish time Fri Dec  2 18:18:05 2022


Pair  time (%) = 0.677905 (0.0214039)
Neigh time (%) = 0.482248 (0.0152263)
Comm  time (%) = 4.84413 (0.152947)
Outpt time (%) = 0.00161292 (5.09258e-05)
Other time (%) = 3161.19 (99.8104)

Nlocal:    27.75 ave 209 max 0 min
Histogram: 31 1 0 1 1 2 2 0 0 2
Nghost:    5.45 ave 60 max 0 min
Histogram: 31 2 5 0 0 0 0 0 0 2
Neighs:    5.225 ave 50 max 0 min
Histogram: 32 2 0 1 1 2 0 0 0 2

Total # of neighbors = 209
Ave neighs/atom = 0.188288
Neighbor list builds = 603
Dangerous builds = 0
write_dump all custom dump.atom_info_ac_* id type x y z radius vx vy vz density #
run 205798
Setting up run at Fri Dec  2 18:18:05 2022

Memory usage per processor = 1084.21 Mbytes
    Step    Atoms         KinEng            CPU 
40748039     1110    0.066958114              0 
40953837     1110    0.067020773      3205.4229 
Loop time of 3205.42 on 40 procs for 205798 steps with 1110 atoms, finish time Fri Dec  2 19:11:30 2022


Pair  time (%) = 0.678137 (0.0211559)
Neigh time (%) = 0.479117 (0.0149471)
Comm  time (%) = 4.76304 (0.148593)
Outpt time (%) = 0.00174625 (5.44779e-05)
Other time (%) = 3199.5 (99.8152)

Nlocal:    27.75 ave 207 max 0 min
Histogram: 30 2 0 0 3 2 0 0 1 2
Nghost:    5.575 ave 57 max 0 min
Histogram: 29 4 1 3 1 0 0 1 0 1
Neighs:    5.475 ave 66 max 0 min
Histogram: 32 2 2 1 0 1 1 0 0 1

Total # of neighbors = 219
Ave neighs/atom = 0.197297
Neighbor list builds = 603
Dangerous builds = 0
write_dump all custom dump.atom_info_ac_* id type x y z radius vx vy vz density #
run 205798
Setting up run at Fri Dec  2 19:11:30 2022

Memory usage per processor = 1084.21 Mbytes
    Step    Atoms         KinEng            CPU 
40953837     1110    0.067020773              0 
41159635     1108    0.067048306      3209.3298 
Loop time of 3209.33 on 40 procs for 205798 steps with 1108 atoms, finish time Fri Dec  2 20:05:00 2022


Pair  time (%) = 0.682318 (0.0212604)
Neigh time (%) = 0.480596 (0.0149749)
Comm  time (%) = 4.97535 (0.155028)
Outpt time (%) = 0.00162337 (5.05827e-05)
Other time (%) = 3203.19 (99.8087)

Nlocal:    27.7 ave 207 max 0 min
Histogram: 30 2 0 1 1 2 2 0 0 2
Nghost:    5.05 ave 63 max 0 min
Histogram: 31 5 2 0 0 0 0 0 1 1
Neighs:    5.775 ave 65 max 0 min
Histogram: 32 2 0 2 1 2 0 0 0 1

Total # of neighbors = 231
Ave neighs/atom = 0.208484
Neighbor list builds = 601
Dangerous builds = 0
write_dump all custom dump.atom_info_ac_* id type x y z radius vx vy vz density #
run 33
Setting up run at Fri Dec  2 20:05:00 2022

Memory usage per processor = 1084.21 Mbytes
    Step    Atoms         KinEng            CPU 
41159635     1108    0.067048306              0 
41159668     1108    0.066952924     0.48957137 
Loop time of 0.489585 on 40 procs for 33 steps with 1108 atoms, finish time Fri Dec  2 20:05:00 2022


Pair  time (%) = 0.00011157 (0.0227888)
Neigh time (%) = 0 (0)
Comm  time (%) = 0.000167384 (0.0341891)
Outpt time (%) = 0.00123888 (0.253046)
Other time (%) = 0.488067 (99.69)

Nlocal:    27.7 ave 207 max 0 min
Histogram: 30 2 0 1 1 2 2 0 0 2
Nghost:    5.05 ave 63 max 0 min
Histogram: 31 5 2 0 0 0 0 0 1 1
Neighs:    5.75 ave 65 max 0 min
Histogram: 32 2 0 2 1 2 0 0 0 1

Total # of neighbors = 230
Ave neighs/atom = 0.207581
Neighbor list builds = 0
Dangerous builds = 0
write_dump all custom dump.atom_info_ac_* id type x y z radius vx vy vz density #
