ITEM: TIMESTEP
16666643
ITEM: NUMBER OF ATOMS
804
ITEM: BOX BOUNDS ff ff ff
-0.15 0.15
-0.15 0.15
-0.15 0.15
ITEM: ATOMS id type x y z radius vx vy vz density 
1018 1 -0.000901737 -0.000205194 -0.068813 0.000175 -17.5788 -1.04323 0.302486 2650 
955 1 -0.00793244 -0.062284 -0.068315 0.000175 -5.95372 3.28741 1.03952 2650 
342 1 -0.00621885 -0.0557221 -0.0677307 0.000984 -10.2541 -1.30034 0.950961 2650 
349 1 -0.000970032 -0.0538939 -0.0683583 0.000635 -22.4535 1.20984 0.318299 2650 
1036 1 -0.00184196 -0.0436983 -0.0679911 0.000984 -12.8565 1.93935 0.348288 2650 
649 1 -0.0180551 -0.0344361 -0.0659379 0.000635 -19.2146 9.82173 5.26052 2650 
1206 1 -0.015772 -0.0142385 -0.0665209 0.000635 -16.9669 2.73074 4.02277 2650 
1158 1 -0.0159686 -0.0117744 -0.0669469 0.000175 -20.4019 -6.05272 4.8649 2650 
437 1 -0.0170145 -0.000179983 -0.0666887 0.000175 -6.61083 -0.002271 1.68749 2650 
1277 1 -0.0222443 -0.0285201 -0.0646457 0.000635 -22.8379 6.8821 7.85706 2650 
1115 1 -0.0196339 -0.0148099 -0.065485 0.000635 -13.2409 4.61233 3.96991 2650 
71 1 -0.0240312 -0.0500732 -0.0636301 0.000984 -14.4043 3.92464 5.44611 2650 
1208 1 -0.0252905 -0.0150856 -0.0635158 0.000635 -15.0321 -3.654 6.19396 2650 
612 1 -0.0241891 -0.0138248 -0.063942 0.000635 -15.0274 -0.545933 5.93831 2650 
907 1 -0.0252237 -0.0599124 -0.0634544 0.000635 -5.30634 2.76172 1.55082 2650 
3 1 -0.0265512 -0.0560967 -0.0626226 0.000984 -18.9442 -0.485766 8.02689 2650 
782 1 -0.0287565 -0.0498944 -0.0620232 0.000635 -16.9477 -0.516288 7.8568 2650 
545 1 -0.0285362 -0.018323 -0.0621246 0.000635 -13.2946 -2.93314 6.10381 2650 
866 1 -0.0345383 -0.0141537 -0.0595314 0.000175 -9.91867 -0.912172 5.75451 2650 
1309 1 -0.0360645 -0.000834398 -0.0580788 0.000635 -10.2966 -0.19805 6.39344 2650 
1307 1 -0.0393437 -0.03784 -0.055912 0.000635 -16.4623 0.225209 11.5783 2650 
14 1 -0.0436905 -0.0157938 -0.0525866 0.000635 -14.4538 1.51157 12.0013 2650 
519 1 -0.0447548 -0.016567 -0.0516842 0.000635 -13.7317 0.432241 11.884 2650 
546 1 -0.0451732 -0.0110022 -0.0513195 0.000635 -14.4229 -1.20513 12.688 2650 
752 1 -0.0468349 -0.0463603 -0.0498064 0.000635 -9.73188 1.01267 9.14535 2650 
548 1 -0.0480569 -0.061917 -0.0486316 0.000635 -14.2266 -6.5132 14.0502 2650 
1198 1 -0.0495689 -0.0464504 -0.0479089 6.3e-05 -21.9764 -5.7138 22.7362 2650 
36 1 -0.0477669 -0.0450995 -0.0484309 0.000984 -9.76424 0.680892 9.62135 2650 
194 1 -0.0516416 -0.0123199 -0.0454988 0.000175 -2.90357 -1.73513 3.29484 2650 
753 1 -0.052475 -0.0184394 -0.0438321 0.000635 -14.8975 -2.54593 17.8249 2650 
1130 1 -0.0533926 -0.00149658 -0.0434313 0.000175 -9.5939 -0.607464 11.792 2650 
656 1 -0.054443 -0.00110073 -0.0421074 0.000175 -9.72078 -0.962309 12.5661 2650 
1311 1 -0.0234808 -0.0269534 -0.0348246 0.000635 20.1904 -4.51685 26.4658 2650 
112 1 -0.0586495 -0.0116189 -0.0351463 0.000635 -7.82814 -2.21737 13.0553 2650 
208 1 -0.060511 -0.0448359 -0.0311018 0.000984 -9.48656 4.22962 18.4417 2650 
38 1 -0.00027278 -0.0593419 -0.068017 0.000984 -22.4497 1.09195 0.0899709 2650 
307 1 -0.0617966 -0.0155053 -0.0284627 0.000984 -8.13263 -0.672431 17.6425 2650 
47 1 -0.0626256 -0.0191578 -0.0274473 0.000635 -6.29877 -2.92892 14.3635 2650 
157 1 -0.0667505 -0.00531031 -0.0167841 0.000175 -3.72995 4.47673 14.8316 2650 
1139 1 -0.0664431 -0.0190894 -0.0161519 0.000635 -3.46994 -1.88053 14.2661 2650 
1211 1 -0.00409093 -0.00245488 -0.0157724 0.000635 -0.0433896 -0.0133075 0.0197567 2650 
251 1 -0.00257881 -0.00280078 -0.0159198 0.000635 -0.0498151 -0.0151166 0.00954878 2650 
798 1 -0.0581508 -0.0611923 -0.0154202 0.000175 -19.2062 0.342888 -25.5737 2650 
514 1 -0.06677 -0.00566131 -0.0147406 0.000635 -2.29086 -0.234277 10.3707 2650 
1174 1 -0.0671621 -0.0375357 -0.0128484 0.000635 -4.20265 3.97906 21.9567 2650 
446 1 -0.0671104 -0.00761813 -0.013105 0.000635 -2.07578 -2.11978 10.6242 2650 
447 1 -0.0673206 -0.0578264 -0.0119868 0.000635 -3.34706 1.37957 18.7877 2650 
886 1 -0.0533691 -0.00425578 -0.0121318 0.000175 -8.26941 -0.108692 -1.8798 2650 
476 1 -0.00408462 -8.26851e-06 -0.0122143 0.000984 -0.0300671 -0.0101018 0.00780087 2650 
54 1 -0.0678698 -0.00464197 -0.011447 0.000175 -1.16542 -0.247017 6.90875 2650 
98 1 -0.00960924 -0.000904408 -0.00964231 0.000175 -0.0630324 0.00365048 0.00662441 2650 
449 1 -0.00524228 -0.002492 -0.00949978 0.000635 -0.0285378 -0.020131 0.0195553 2650 
1302 1 -0.00353126 -0.00167527 -0.00874562 0.000635 -0.0416228 -0.0112855 0.0107993 2650 
461 1 -0.0147428 -0.000741083 -0.00785512 0.000175 0.018734 -0.00952745 -0.0123909 2650 
126 1 -0.0122856 -0.000995577 -0.00766063 0.000175 -0.0732564 -0.013011 0.00458228 2650 
1095 1 -0.0151857 -0.00177864 -0.0060459 0.000175 -0.0804166 -0.0356468 0.179322 2650 
1192 1 -0.00190199 -0.00228363 -0.00610744 0.000175 -0.0471357 -0.0332044 0.0264368 2650 
156 1 -0.01202 -0.00231049 -0.004783 0.000175 0 -0.01175 0 2650 
403 1 -0.000132 -0.00208149 -0.004486 0.000175 0 -0.01175 0 2650 
788 1 -0.006237 -0.000862486 -0.003705 0.000175 0 -0.01175 0 2650 
905 1 -0.00655936 -0.00290233 -0.00261844 0.000984 0.0029287 -0.0193689 0.0163453 2650 
541 1 -0.0120712 -0.0015075 -0.00331194 0.000984 0.00506813 -0.0142762 0.00177306 2650 
406 1 -0.003114 -0.000356486 -0.002553 6.3e-05 0 -0.01175 0 2650 
1176 1 -0.06838 -0.0563839 -0.00051414 0.000635 -0.209693 -6.9764 27.827 2650 
835 1 -0.00127199 -0.00197164 -0.000657015 6.3e-05 -0.0319467 -0.0249434 0.0171652 2650 
1245 1 -0.068372 -0.043501 0.00113799 0.000635 0.431596 1.93715 25.8968 2650 
265 1 -0.005736 -0.00311249 0.001012 0.000175 0 -0.01175 0 2650 
73 1 -0.0143464 -0.000572487 0.00131832 0.000635 -0.00443755 -0.0284393 0.00427709 2650 
1224 1 -0.00162104 -0.000446781 0.00183606 0.000175 0.0222858 -0.00121497 0.0118473 2650 
144 1 -0.00186128 -0.00118207 0.00226346 0.000635 -0.00772058 -0.0048269 0.0141169 2650 
1172 1 -0.0680047 -0.038345 0.00292465 0.000635 3.30627 -0.540836 12.7903 2650 
317 1 -0.01039 -0.00394734 0.00402188 0.000635 -1.56453 -0.0903699 0.606069 2650 
757 1 -0.0161598 -0.00231811 0.00401847 0.000175 0.0202233 -0.0130255 0.108136 2650 
972 1 -0.0680775 -0.00722321 0.00641412 0.000635 1.29421 -0.609729 13.7288 2650 
828 1 -0.0159131 -0.00274122 0.00510931 0.000175 0.00524478 -0.0117885 -0.00423348 2650 
1152 1 -0.004408 -0.00178749 0.005639 0.000175 0 -0.01175 0 2650 
358 1 -0.001101 -0.00131749 0.005262 0.000175 0 -0.01175 0 2650 
701 1 -0.0685191 -0.00258273 0.00651888 0.000175 1.26485 1.31004 13.2926 2650 
812 1 -0.00914672 -0.0030394 0.00640039 0.000635 0.00281055 -0.0056707 0.00371342 2650 
453 1 -0.012962 -0.00165828 0.00664608 0.000635 -0.00457087 -0.0104634 0.014723 2650 
75 1 -0.015007 -0.000210469 0.00606804 0.000635 -0.0225019 -0.0191946 0.00134943 2650 
396 1 -0.0682827 -0.0407873 0.00865078 0.000175 1.92193 -2.97345 15.1679 2650 
1278 1 -0.0678037 -0.0389644 0.00885363 0.000635 2.16781 -0.439348 16.5928 2650 
732 1 -0.0670956 -0.0309953 0.00749227 0.000175 -4.27821 1.90461 -2.87544 2650 
829 1 -0.00886873 -0.00148611 0.00917132 0.000175 0.0220791 0.0345281 -0.0297629 2650 
1199 1 -0.0680272 -0.0592301 0.0111708 6.3e-05 4.44595 3.07584 27.0731 2650 
1051 1 -0.000516 -0.00275849 0.009814 0.000175 0 -0.01175 0 2650 
944 1 -0.0099742 -0.000321332 0.0101932 0.000635 -0.00272368 0.00151654 0.0223058 2650 
637 1 -0.00265161 -0.000245078 0.0102132 6.3e-05 -0.0011785 -0.011356 -0.000649709 2650 
671 1 -0.0678966 -0.0624232 0.0119387 6.3e-05 3.50163 0.566872 19.913 2650 
1180 1 -0.0456468 -0.0305208 0.00935506 0.000635 24.8064 1.51032 -65.5803 2650 
278 1 -0.00849542 -0.00329089 0.0131175 0.000635 0.0149234 -0.0108541 0.0128465 2650 
513 1 -0.00286268 -0.00289287 0.0122511 0.000635 -0.00117419 -0.0075039 -0.00507705 2650 
816 1 -0.00952922 -0.000193672 0.0130968 0.000635 0.0197603 -4.87674e-05 0.00971947 2650 
397 1 -0.00119928 -0.00106948 0.0127078 0.000175 0.0073691 -0.0131408 0.000240101 2650 
320 1 -0.00200301 -9.70757e-05 0.0126985 0.000635 -3.24624e-05 -0.0112922 5.65073e-06 2650 
479 1 -0.000574 -0.000659486 0.012062 0.000635 0 -0.01175 0 2650 
245 1 -0.066759 -0.037198 0.0147967 0.000635 4.06818 -0.589841 18.3448 2650 
39 1 -0.00748252 -0.00277884 0.0143589 0.000635 0.0177199 -0.00451792 0.0110696 2650 
184 1 -0.00897646 -0.00210811 0.0134972 0.000635 0.0156724 -0.00765716 0.00921831 2650 
1220 1 -0.00306783 -0.00333985 0.0148279 0.000175 -0.158112 -0.0249984 0.76421 2650 
632 1 -0.00820251 -0.00104933 0.0145076 0.000175 0.0171571 0.00141777 0.00986053 2650 
366 1 -0.00390986 -3.32774e-05 0.0150177 0.000175 0.0428482 0.0054132 0.00796111 2650 
789 1 -0.000778483 -0.00108395 0.0164304 0.000175 -0.000962308 -0.0101956 0.000951698 2650 
995 1 -0.0661149 -0.0350624 0.0191345 0.000175 3.60319 1.63721 12.448 2650 
760 1 -0.0656773 -0.0532679 0.0205865 0.000175 4.44818 1.79731 14.1888 2650 
105 1 -0.0647809 -0.0500027 0.0207976 0.000984 5.04965 -3.31535 15.7158 2650 
1268 1 -0.0632204 -0.0323816 0.025145 0.000984 6.9848 0.669123 17.5471 2650 
51 1 -0.0636367 -0.0261513 0.0250177 0.000635 7.25289 0.509077 18.4388 2650 
1258 1 -0.0615741 -0.0473216 0.0307549 0.000175 9.14097 -0.2486 18.2974 2650 
319 1 -0.0608599 -0.0474028 0.0311667 0.000635 8.66945 0.663033 16.9195 2650 
586 1 -0.060467 -0.00734396 0.0319201 0.000635 6.78965 -0.182089 12.8543 2650 
1153 1 -0.0604189 -0.0615409 0.0329658 0.000175 5.44013 -3.94806 9.9688 2650 
600 1 -0.0604837 -0.0599659 0.0328468 0.000175 4.68262 0.496928 8.62099 2650 
6 1 -0.0596182 -0.0473799 0.0327967 0.000635 -0.220489 1.22123 2.32117 2650 
1286 1 -0.0594876 -0.0298788 0.034618 0.000175 7.26306 -2.87258 12.4786 2650 
581 1 -0.0579112 -0.0466045 0.0363472 0.000635 4.78053 0.852138 7.61189 2650 
351 1 -0.0577891 -0.0253283 0.036543 0.000635 7.94614 -1.40442 12.5585 2650 
482 1 -0.056731 -0.0482045 0.0381625 0.000635 5.62947 -1.77896 8.36319 2650 
376 1 -0.0462056 -0.0340897 0.0379374 0.000984 9.35081 -1.74151 11.0475 2650 
700 1 -0.0530509 -0.0499595 0.0431141 0.000175 6.10813 8.11957 6.8449 2650 
739 1 -0.0526415 -0.0023983 0.0430891 0.000984 9.55936 -0.171108 11.668 2650 
1215 1 -0.0529629 -0.00063474 0.0432385 0.000635 9.25785 -1.08606e-05 11.3329 2650 
1096 1 -0.0525687 -0.0343823 0.0444251 0.000175 13.2969 0.897116 15.7314 2650 
991 1 -0.0502256 -0.0572412 0.0470571 0.000175 11.5763 -0.118865 12.3532 2650 
239 1 -0.0498731 -0.0545665 0.0462665 0.000984 13.6704 -0.593759 14.7237 2650 
2 1 -0.0487114 -0.0557399 0.047486 0.000984 13.1973 -1.30988 13.5253 2650 
993 1 -0.0494375 -0.0154652 0.0478843 0.000175 11.6851 -3.28832 12.0616 2650 
1299 1 -0.0480093 -0.0132947 0.0481934 0.000984 11.9412 -1.86603 11.885 2650 
1246 1 -0.0470645 -0.04953 0.0495907 0.000635 11.4871 -1.12605 10.8951 2650 
89 1 -0.0468614 -0.00766332 0.0502677 0.000175 -0.66723 1.89806 0.708796 2650 
352 1 -0.0447024 -0.0301938 0.0517288 0.000635 11.5161 -0.49363 9.95258 2650 
419 1 -0.0435357 -0.0295526 0.0527137 0.000635 12.6847 0.470099 10.474 2650 
287 1 -0.0447057 -0.00801705 0.0517226 0.000635 1.10105 1.84215 0.951398 2650 
533 1 -0.0428252 -0.0500974 0.0538785 0.000175 15.8326 1.65585 12.5839 2650 
748 1 -0.0427303 -0.0268606 0.0533674 0.000635 10.0042 3.15757 8.00614 2650 
1138 1 -0.0418408 -0.0131113 0.0540702 0.000635 16.7426 -3.86525 12.9489 2650 
609 1 -0.0380969 -0.058398 0.0567679 0.000635 15.2912 2.30742 10.2574 2650 
147 1 -0.036679 -0.0244781 0.0576962 0.000635 21.0139 3.65182 13.3518 2650 
161 1 -0.0380551 -0.0121376 0.0573471 0.000175 11.9328 -1.33839 7.91851 2650 
510 1 -0.0347147 -0.0371499 0.0588963 0.000635 16.0088 -0.168126 9.43315 2650 
1045 1 -0.0364333 -0.0133071 0.0578481 0.000635 9.72404 -1.49768 6.12385 2650 
375 1 -0.0329432 -0.0420521 0.0595209 0.000984 28.4773 -2.81706 15.75 2650 
842 1 -0.0307853 -0.0353882 0.0610448 0.000635 25.8134 -0.105219 13.0138 2650 
350 1 -0.0296059 -0.0343774 0.0616253 0.000635 26.2691 2.07871 12.6105 2650 
708 1 -0.0283977 -0.0289154 0.0621905 0.000635 25.1764 -4.04026 11.4916 2650 
532 1 -0.0262645 -0.00945613 0.0636165 0.000175 24.8972 -5.70971 10.279 2650 
74 1 -0.0250895 -0.00432589 0.0635947 0.000635 6.53621 -0.327391 2.57868 2650 
838 1 -0.0231779 -0.0598035 0.063945 0.000984 6.64691 -0.0637015 2.40925 2650 
7 1 -0.0233809 -0.0278833 0.0642488 0.000635 37.0067 3.77458 13.4612 2650 
928 1 -0.0234908 -0.0255598 0.064692 0.000175 23.7917 -1.88969 8.63919 2650 
582 1 -0.0239542 -0.0165529 0.0640317 0.000635 21.691 1.54545 8.11324 2650 
1166 1 -0.0252838 -0.00548723 0.0641303 6.3e-05 -0.159051 -0.125609 -0.00551661 2650 
104 1 -0.0163836 -0.0210459 0.0660282 0.000984 37.9799 1.08475 9.41764 2650 
678 1 -0.0136157 -0.0474539 0.0669965 0.000635 28.9409 -11.9244 5.8845 2650 
969 1 -0.00260994 -0.0131858 0.0664614 0.000984 -37.4607 1.26918 -2.63946 2650 
50 1 -0.0093706 -0.060925 0.0677198 0.000635 12.8523 0.912905 1.7784 2650 
40 1 -0.0111197 -0.0598231 0.0674546 0.000635 10.8668 0.391457 1.79135 2650 
1016 1 -0.00691543 -0.0534324 0.0680144 0.000635 19.1899 0.280171 1.95111 2650 
311 1 -0.00676122 -0.0255228 0.0680299 0.000635 19.3172 -1.93294 1.91983 2650 
1306 1 -0.00356261 -0.0147118 0.0682721 0.000635 13.4162 -0.895879 0.700003 2650 
1195 1 -0.00744918 -0.00832844 0.0684207 0.000175 13.2421 0.583693 1.44171 2650 
914 1 -0.000420844 -0.00725866 0.0683637 0.000635 2.94387 -1.18964 0.0170947 2650 
348 1 -0.000205818 -0.00136198 0.0683647 0.000635 16.0627 -0.636107 0.0483588 2650 
1089 1 -0.00182305 -0.0256917 0.0688009 0.000175 15.2565 -7.16928 0.404282 2650 
41 1 -0.0614054 -0.0477998 0.0300783 0.000635 8.37406 0.505709 17.0815 2650 
231 1 -0.0119093 0.0114475 -0.0677925 0.000175 -140.003 -4.1628 24.5922 2650 
1235 1 -0.042984 0.0434534 -0.0527141 0.000984 -4.65124 -3.25205 3.78972 2650 
85 1 -0.0499085 0.00550149 -0.0467363 0.000635 -22.2514 -2.35857 23.7494 2650 
247 1 -0.0056455 0.0131884 -0.0423208 0.000635 -4.67776 -1.55184 8.001 2650 
148 1 -0.0579168 0.0629158 -0.0363942 0.000635 -47.7258 -0.0141153 75.9834 2650 
659 1 -0.000851798 0.000842117 -0.0164981 0.000175 -0.0836249 0.0283428 0.0355583 2650 
1017 1 -0.00205929 0.00378683 -0.0160479 0.000635 -0.15539 -0.042577 0.0343036 2650 
929 1 -0.000971982 0.00941263 -0.0157712 0.000175 -0.00746881 0.0163287 0.00831876 2650 
542 1 -5.44698e-05 0.00853558 -0.0158681 0.000984 -0.0538791 -0.0055923 -0.0037007 2650 
628 1 -0.00444543 0.0222346 -0.0159923 0.000175 -0.0245397 0.017452 0.0177986 2650 
485 1 -0.00408102 0.0403332 -0.0156589 0.000635 -0.279431 0.171394 0.0516841 2650 
404 1 -0.00700684 0.000404385 -0.0151252 0.000175 -0.053654 -0.00658165 0.0196536 2650 
272 1 -0.00685513 0.00645311 -0.0153717 6.3e-05 0.0352046 0.000797988 -0.0190541 2650 
1035 1 -0.00150579 0.00613401 -0.0155559 0.000984 -0.0694398 -0.00141495 -0.017597 2650 
1070 1 -0.000104205 0.0129436 -0.0151498 0.000984 -0.0620466 0.0509914 -0.0202134 2650 
364 1 -0.000200076 0.0141616 -0.0149123 0.000175 -0.0530427 0.0594775 0.00244785 2650 
1197 1 -0.00682845 0.0182598 -0.0145226 6.3e-05 -0.0338103 0.0357055 0.0238704 2650 
475 1 -0.00478859 0.0204568 -0.0147009 0.000984 -0.0607083 -0.0574628 0.0706631 2650 
1295 1 -0.0072914 0.0256066 -0.0150986 0.000175 0.0125198 0.0446048 0.0131484 2650 
234 1 -0.00548534 0.0374561 -0.0148392 0.000175 -0.0227613 0.0264312 0.0216661 2650 
706 1 -0.00403868 0.0380904 -0.0153746 0.000984 -0.169533 0.0905366 0.0298664 2650 
771 1 -0.000925483 0.0441858 -0.015307 0.000984 -0.144371 0.260089 0.010276 2650 
263 1 -0.0088739 0.0162615 -0.0141986 0.000175 -0.215232 -0.0896057 0.162577 2650 
135 1 -0.00889412 0.0166316 -0.0142934 6.3e-05 -0.164642 -0.0600692 0.123293 2650 
140 1 -0.00171105 0.0311262 -0.0142603 0.000984 -0.0292916 0.0300335 0.0107809 2650 
780 1 -0.00419749 0.0417581 -0.0132105 0.000635 0.0254083 -0.0133752 0.0226781 2650 
750 1 -0.00827222 0.0469043 -0.0137883 0.000635 -0.140478 0.148027 0.17332 2650 
804 1 -0.0056603 0.0545095 -0.0136408 0.000984 0.0166513 0.0894891 0.00584977 2650 
979 1 -0.00867457 0.000747852 -0.0131178 0.000635 0.0175726 -0.0107414 -0.0103603 2650 
1168 1 -0.00560468 0.00230789 -0.012549 0.000984 -0.0139303 -0.00406455 -0.034817 2650 
179 1 -0.00924578 0.0026305 -0.0120858 0.000635 0.00377573 -0.00575303 -0.00270506 2650 
394 1 -0.0113724 0.00553141 -0.0120177 0.000175 0.0112657 -0.00217249 -0.0179039 2650 
1066 1 -0.00201999 0.00514072 -0.0130451 6.3e-05 -0.0365598 -0.00351041 0.0300373 2650 
17 1 -0.000135923 0.0105096 -0.0123019 0.000635 -0.0154538 0.0216362 0.00641334 2650 
530 1 -0.0104977 0.012256 -0.0125166 0.000175 0.0274513 0.0105925 -0.0204196 2650 
945 1 -0.00428347 0.0180257 -0.0126874 0.000635 -0.0236852 0.0079456 -0.0290825 2650 
1259 1 -0.00210189 0.0216534 -0.0125183 0.000175 -0.0295418 -0.0539504 -0.0818475 2650 
428 1 -0.0112366 0.0329089 -0.0123072 0.000175 0.00190252 0.0405855 -0.000631276 2650 
283 1 -0.011983 0.0133255 -0.0110667 0.000635 0.670082 -0.107802 -0.472872 2650 
556 1 -0.0110482 0.0142076 -0.0108966 0.000635 0.182068 0.187668 0.0139247 2650 
1243 1 -0.00677326 0.0146095 -0.0110508 0.000635 -0.00389151 0.0170636 0.0214268 2650 
1056 1 -0.00335762 0.0157256 -0.0116037 0.000175 -0.027399 0.0221386 -0.00270379 2650 
1026 1 -0.00716784 0.0215472 -0.0111685 0.000175 0.0132191 0.0729919 -0.0477515 2650 
64 1 -0.011935 0.0315232 -0.0118498 0.000175 -0.0559295 0.0407821 0.0645985 2650 
248 1 -0.0043503 0.0589908 -0.0117961 0.000635 -0.0226302 0.0626847 -0.0723107 2650 
673 1 -0.00602916 0.0123957 -0.0106083 0.000984 -0.00843321 0.0154674 0.00699179 2650 
421 1 -0.00851634 0.0155259 -0.0107359 0.000635 -0.000513968 -0.000292922 -0.00569587 2650 
640 1 -0.00883498 0.0185981 -0.00971333 0.000984 -0.0181036 0.0285647 -0.0047517 2650 
751 1 -0.00693036 0.0191945 -0.0104722 0.000635 -0.0140229 0.0140713 0.0019441 2650 
645 1 -0.0122871 0.0279234 -0.0107429 0.000635 -0.0869266 -0.0322763 0.0997437 2650 
1055 1 -0.0113063 0.0293405 -0.0103045 0.000175 0.0114005 0.0341613 0.0308116 2650 
52 1 -0.00826912 0.0362499 -0.0100939 0.000175 0.0154105 0.0897498 -0.0530944 2650 
947 1 -0.0115105 0.0396187 -0.0106436 0.000635 -0.0488372 0.0604031 0.0847296 2650 
660 1 -0.011599 0.000606398 -0.00946938 0.000175 -0.00881201 -0.00590314 -0.00252555 2650 
481 1 -0.000248259 0.000489796 -0.0087155 0.000635 0.00738789 -0.014847 0.00531553 2650 
852 1 -0.0119595 0.00197691 -0.00959177 0.000635 -0.000257534 -0.00684049 0.0230594 2650 
868 1 -0.005513 0.00148051 -0.008425 6.3e-05 0 -0.01175 0 2650 
487 1 -0.0016822 0.00413415 -0.00951759 0.000635 0.0447421 0.00400942 -0.0156768 2650 
1304 1 -0.0121573 0.0149359 -0.00881927 0.000635 -0.00455416 0.0338488 0.025492 2650 
182 1 -0.002327 0.0160643 -0.00931358 0.000635 -0.0100569 0.00693673 -0.00554512 2650 
1330 1 -0.0143269 0.0180011 -0.00877267 6.3e-05 -0.0337169 0.0152879 0.064122 2650 
1205 1 -0.00809624 0.0250308 -0.0090144 0.000635 0.0174966 0.0300308 0.00234936 2650 
1094 1 -0.00407622 0.0263576 -0.00860285 0.000175 0.00407957 0.0151024 0.0177536 2650 
544 1 -0.00890807 0.0333448 -0.00930257 0.000635 0.00103098 0.0514941 -0.00390016 2650 
5 1 -0.00114543 0.0440009 -0.00885258 0.000635 -0.082546 0.015499 -0.0368774 2650 
367 1 -0.0137044 0.0516855 -0.00952768 0.000175 -0.0203281 0.0579134 0.0379886 2650 
1013 1 -0.0100105 0.0744513 -0.00956656 0.000635 -0.0205752 0.086594 0.00904704 2650 
309 1 -0.0133138 0.00490741 -0.0079166 0.000984 -0.00438138 -0.00190246 0.000501198 2650 
94 1 -0.00473376 0.00872891 -0.0080401 0.000175 -0.00172904 -0.00895857 0.0161042 2650 
616 1 -0.00675807 0.0141707 -0.00766657 0.000635 0.000113414 -0.00205097 -0.00110098 2650 
1146 1 -0.0038939 0.0132801 -0.00822539 0.000635 -0.00393242 0.0174144 -0.00190088 2650 
164 1 -0.0122443 0.018104 -0.00748169 0.000175 -0.0176431 0.022443 -0.0037286 2650 
383 1 -0.00379553 0.0214801 -0.00806675 0.000635 0.00587361 0.0192026 -0.00126337 2650 
1240 1 -0.0136856 0.0541221 -0.00760121 0.000635 -0.00199033 0.0650606 0.0284937 2650 
689 1 -0.00976332 0.0139386 -0.00601744 0.000175 0.0350826 0.00776328 -0.0088327 2650 
260 1 -0.0130042 0.0148919 -0.00691204 0.000175 0.0086238 0.0203435 0.0332592 2650 
815 1 -0.00880408 0.0147464 -0.00710512 0.000635 -0.0111538 0.00466279 0.0171074 2650 
808 1 -0.0149056 0.0173202 -0.00648703 0.000635 -0.0347715 0.0145895 0.065876 2650 
1270 1 -0.00836041 0.0209643 -0.0070301 0.000635 -0.0125023 0.020904 -0.0178073 2650 
744 1 -0.00729059 0.0211299 -0.00604595 0.000635 -0.00608121 0.0250342 -0.0167774 2650 
187 1 -0.00383702 0.023184 -0.00617596 0.000635 0.00634451 0.0682903 -0.0589323 2650 
380 1 -0.00495494 0.0275709 -0.00629986 0.000635 -0.0180193 0.0474334 -0.0264515 2650 
553 1 -0.0114943 0.0347894 -0.00641153 0.000635 -0.00996973 0.0383797 -0.0135535 2650 
1116 1 -0.00467787 0.041951 -0.0062837 0.000635 0.0564222 0.024117 0.074209 2650 
859 1 -0.0140308 0.00331978 -0.00486508 0.000175 -0.000660815 -0.00390032 0.0101657 2650 
943 1 -0.00290713 0.00250224 -0.00590675 0.000635 -0.00456893 -0.010637 0.00438 2650 
1150 1 -0.0153479 0.00416108 -0.00535319 0.000175 -0.030121 -0.00721628 0.0161196 2650 
1071 1 -0.0144224 0.00809615 -0.00569741 0.000635 -0.0327305 -0.0202787 0.0589015 2650 
549 1 -0.0154633 0.0093441 -0.00501065 0.000635 0.0049784 0.00763864 -0.00249761 2650 
102 1 -0.010479 0.0112083 -0.0048795 6.3e-05 0.00334847 -0.0040666 0.000832772 2650 
1088 1 -0.0157484 0.0147996 -0.00557925 0.000175 -0.00801302 0.00747464 0.0315491 2650 
120 1 -0.00457297 0.0165713 -0.00537496 0.000175 0.00913196 0.0136933 -0.0356083 2650 
259 1 -0.015818 0.0190234 -0.00525236 0.000175 -0.0129271 0.0271071 0.0729631 2650 
791 1 -0.0159215 0.0228636 -0.00503169 0.000175 0.0166831 0.00934882 -0.037652 2650 
778 1 -0.00404834 0.0256411 -0.00523728 0.000635 0.0218303 0.027517 -0.00578231 2650 
880 1 -0.00644843 0.0302686 -0.00485216 0.000635 0.00718633 0.0348972 0.0156473 2650 
900 1 -0.015907 0.0335931 -0.00550242 6.3e-05 -0.0182262 0.0278439 0.0727808 2650 
490 1 -0.00442286 0.0362207 -0.00531405 0.000635 -0.0385425 0.0502219 -0.0112482 2650 
1033 1 -0.00891434 0.00578248 -0.00397291 6.3e-05 0.022102 -0.00291578 0.0245793 2650 
809 1 -0.0107959 0.0157035 -0.00460823 0.000635 0.011989 0.00465869 0.00803123 2650 
879 1 -0.00488011 0.0248618 -0.00408044 0.000635 0.0136167 0.0204472 -0.00788415 2650 
567 1 -0.0115125 0.0324122 -0.0045393 0.000175 0.0398432 -0.0260421 0.0628495 2650 
121 1 -0.0128645 0.0448617 -0.00471647 0.000175 0.00697799 0.0548975 0.0138093 2650 
973 1 -0.00373635 0.0458642 -0.0043546 0.000635 0.00226146 0.367522 0.268827 2650 
956 1 -0.00885796 0.00397339 -0.00346665 0.000175 -0.00560381 0.00631663 0.0087735 2650 
676 1 -0.00579571 0.0499033 -0.00256109 0.000635 0.00527264 0.0630703 -0.0122838 2650 
55 1 -0.015055 0.00466794 -0.00217528 0.000175 -0.00115674 -0.00245394 -0.00691597 2650 
665 1 -0.00060281 0.00984884 -0.00219806 0.000175 0.017994 -0.0016948 0.000401512 2650 
1281 1 -0.002579 0.0169182 -0.00144827 0.000635 -0.0119993 0.0076178 0.014426 2650 
35 1 -0.000440187 0.0174162 -0.00140936 0.000984 0.00123235 0.0160791 -0.000223526 2650 
303 1 -0.00222384 0.0193769 -0.00222407 6.3e-05 0.00250987 0.0127205 -0.0489267 2650 
915 1 -0.00740274 0.0274933 -0.00220129 0.000635 0.00218725 0.0319934 0.0147181 2650 
986 1 -0.016121 0.0328811 -0.00241714 0.000175 0.0322145 0.390659 -0.613735 2650 
143 1 -0.0167866 0.0627203 -0.00176733 0.000635 -0.0633676 0.114534 0.0794453 2650 
1210 1 -0.0136259 0.0653554 -0.00174134 0.000635 0.0211039 0.160059 0.0580351 2650 
772 1 -0.0144446 0.0034652 -0.000327587 0.000984 -0.000358976 -0.00621318 0.00295537 2650 
538 1 -0.00224232 0.00616605 -0.000854575 6.3e-05 -0.0217083 -0.00585123 -0.0197752 2650 
160 1 -0.0058803 0.0224795 -0.00108959 0.000175 -0.0327544 0.0384286 0.000294238 2650 
273 1 -0.0068106 0.0255839 -2.88162e-05 0.000984 -0.0316448 0.0370524 -0.00397021 2650 
1229 1 -0.00559939 0.0257021 -0.00095698 0.000175 -0.0128407 0.0378451 -0.000284162 2650 
518 1 -0.0157557 0.0555465 -0.000579607 0.000635 -0.00654611 0.0987357 0.0542808 2650 
58 1 -0.006056 0.00215351 0.000815 0.000175 0 -0.01175 0 2650 
558 1 -0.011131 0.00324351 0.000798 0.000175 0 -0.01175 0 2650 
925 1 -0.009738 0.00349051 0.000245 0.000175 0 -0.01175 0 2650 
745 1 -0.0160903 0.0059518 0.000594453 0.000635 -0.0181591 0.00475616 -0.00478231 2650 
443 1 -0.0128684 0.0127533 0.000812004 0.000984 -0.0153893 0.0108267 0.0237809 2650 
270 1 -0.00519534 0.0167119 0.000805785 6.3e-05 0.000631057 0.0149424 -0.0171158 2650 
721 1 -0.0162362 0.0223067 0.000606388 0.000635 -0.00384036 0.0275315 0.0991335 2650 
1305 1 -0.00814892 0.0308285 0.000463263 0.000635 0.00906806 0.0376099 -0.0164216 2650 
334 1 -0.00567906 0.00344441 0.00168813 0.000175 -0.0327494 -0.00485458 -0.0203712 2650 
1100 1 -0.00595773 0.00436409 0.00172494 6.3e-05 -0.026767 -0.0102131 -0.017093 2650 
682 1 -0.00265785 0.00508533 0.00142562 0.000635 -0.0298984 0.00662794 0.0232194 2650 
720 1 -0.00943361 0.0154612 0.00214117 0.000635 0.0490516 0.00411265 -0.0781846 2650 
57 1 -0.0146937 0.0234109 0.00129184 0.000175 -0.0378209 0.486224 -0.351669 2650 
890 1 -0.000862343 0.02863 0.00160017 0.000175 0.0158707 0.0492912 0.0443291 2650 
837 1 -0.0151384 0.0347249 0.0019021 0.000984 0.00613758 0.0342245 0.0256509 2650 
1082 1 -0.0160458 0.0384731 0.00143247 0.000635 -0.00785965 0.0426018 0.0667211 2650 
1266 1 -0.0134964 0.0414636 0.00201778 0.000984 0.0145574 0.0675114 -0.0580869 2650 
932 1 -0.0165636 0.0419911 0.00183507 0.000175 0.0187353 0.0812206 0.10069 2650 
792 1 -0.00112671 0.0428304 0.00160639 0.000175 -0.0168365 0.0608127 -0.0274352 2650 
1169 1 -0.0162195 0.0720201 0.00190237 0.000984 -0.0105892 0.13557 0.0507031 2650 
1223 1 -0.004473 0.00108251 0.002721 0.000175 0 -0.01175 0 2650 
769 1 -0.003816 0.00210651 0.003188 6.3e-05 0 -0.01175 0 2650 
1290 1 -0.0119306 0.00791354 0.00353598 0.000175 -0.00391473 0.00241023 0.00420642 2650 
1175 1 -0.00455459 0.0117648 0.00336357 0.000635 -0.000115129 0.0147925 -0.0445652 2650 
801 1 -0.0109522 0.0146858 0.00275779 6.3e-05 0.0222772 0.0115873 0.0212157 2650 
1164 1 -0.0164943 0.032454 0.00293062 6.3e-05 0.0100656 0.0185812 0.056825 2650 
648 1 -0.0136322 0.0442507 0.00281831 0.000635 -0.00374802 0.0998065 -0.0236393 2650 
858 1 -0.00639531 0.0552066 0.00286831 0.000175 0.0249949 0.0498135 -0.00159121 2650 
987 1 -0.00251009 0.0553304 0.00281006 0.000175 -0.0264761 0.0565284 -0.00520713 2650 
554 1 -0.0130361 0.0586553 0.00326957 0.000635 0.0313183 0.0829075 -0.0380114 2650 
1027 1 -0.0022245 0.00774206 0.00364574 0.000175 0.00644175 0.00965873 0.0244235 2650 
432 1 -0.00506735 0.0165183 0.00368237 0.000175 -0.013381 0.0143138 -0.0070222 2650 
457 1 -0.0036215 0.023963 0.00475535 0.000635 -0.0342609 0.0287627 0.0218493 2650 
1234 1 -0.0143557 0.0313958 0.00426436 0.000984 0.0131208 0.00721177 -0.0293047 2650 
1217 1 -0.00471254 0.00217329 0.00506115 0.000175 -0.000942621 -0.0101844 -0.000321658 2650 
359 1 -0.0157326 0.00411014 0.00524569 0.000175 0.0121382 -0.0174673 0.0263186 2650 
1091 1 -0.0156774 0.0035844 0.00566825 0.000175 0.00710678 -0.0224671 0.02461 2650 
522 1 -0.0151162 0.00446785 0.0057694 0.000635 0.0119594 -0.0191363 0.0279136 2650 
372 1 -0.0084668 0.00833289 0.00597526 6.3e-05 -0.0106514 0.00351897 0.00342164 2650 
195 1 -0.0135249 0.0286613 0.00588148 0.000175 -0.00225994 0.0287728 0.0133597 2650 
217 1 -0.00691606 0.0307964 0.00523347 0.000635 0.00148578 0.0392188 0.0318405 2650 
165 1 -0.0106905 0.045085 0.00567706 0.000175 -0.00634257 0.0588998 0.00980155 2650 
114 1 -0.0153045 0.0510213 0.00534488 0.000635 -0.488157 0.787482 -1.78709 2650 
424 1 -0.00237195 0.0555096 0.00540718 0.000635 0.00793162 0.056283 0.0290702 2650 
949 1 -0.0135507 0.0618222 0.00595447 0.000635 -0.00772525 0.102977 0.0380188 2650 
1308 1 -0.00118737 0.0022953 0.00617495 0.000635 -0.0153076 -0.0152596 0.00448851 2650 
1021 1 -0.004268 0.00303051 0.006589 0.000175 0 -0.01175 0 2650 
162 1 -0.0114247 0.00390063 0.00629518 0.000175 0.0300387 -0.0118117 0.0024332 2650 
994 1 -0.00166986 0.00881646 0.006107 0.000175 0.00443407 0.00372849 -0.00301926 2650 
696 1 -0.0103257 0.00984231 0.00608344 0.000175 0.0238614 0.0509438 -0.023507 2650 
822 1 -0.0141802 0.0125775 0.00651092 0.000175 0.00434887 0.0109457 -0.00215861 2650 
378 1 -0.00841196 0.0125925 0.00692839 0.000984 0.0449266 -0.00521014 -0.00403964 2650 
1137 1 -0.0138788 0.0322635 0.00655567 0.000635 -0.0290592 0.0264909 0.0287813 2650 
474 1 -0.0145786 0.0397145 0.00638268 0.000984 0.00588343 0.069456 0.0460614 2650 
1020 1 -0.0149288 0.0477164 0.00624107 0.000175 -0.0494944 0.0182496 0.0847528 2650 
258 1 -0.0038985 0.06825 0.00624041 0.000175 0.0436375 0.207586 0.0760354 2650 
1155 1 -0.00955625 0.0732913 0.00663204 0.000175 0.024834 0.359137 0.249693 2650 
494 1 -0.001243 0.00218351 0.007677 0.000175 0 -0.01175 0 2650 
1163 1 -0.0141618 0.0158643 0.0082812 0.000175 0.00926541 0.0229603 0.0180295 2650 
1080 1 -0.00544329 0.0288194 0.0079679 0.000635 0.0248431 0.0276823 -0.0367337 2650 
1144 1 -0.01196 0.0353247 0.00770376 0.000635 -0.207409 0.238736 0.050474 2650 
176 1 -0.00125152 0.0453909 0.00784523 0.000635 -0.0110428 0.0981867 0.0247842 2650 
495 1 -0.00754672 0.0492304 0.00810437 0.000175 -0.0312269 0.0478084 -0.0494247 2650 
101 1 -0.00999113 0.0540461 0.0081654 6.3e-05 0.00871546 0.0741289 0.0276938 2650 
1283 1 -0.00808088 0.00119051 0.00887938 0.000175 0.0272269 -0.0102801 0.040072 2650 
170 1 -0.0140452 0.00271001 0.00918631 6.3e-05 -0.0339393 -0.00115002 -0.0633236 2650 
28 1 -0.00855492 0.00350492 0.00924896 0.000175 0.0867595 -0.197559 0.0687718 2650 
46 1 -0.0133307 0.00693394 0.00916873 0.000635 -0.0281747 0.0295156 -0.00103443 2650 
267 1 -0.00692512 0.00844419 0.00921885 0.000175 0.014904 0.00469267 -5.3787e-06 2650 
440 1 -0.00720661 0.0157712 0.00858427 6.3e-05 -0.0115646 0.0178358 -0.0101824 2650 
16 1 -0.0130498 0.0190955 0.00873224 0.000635 0.0267071 0.0265913 0.0283769 2650 
246 1 -0.0019103 0.0290848 0.00905613 0.000635 0.00131052 0.0423331 0.0426648 2650 
1003 1 -0.0111986 0.030916 0.0091788 0.000984 0.00256454 0.0496007 0.0540704 2650 
1242 1 -0.0127867 0.0402192 0.00943588 0.000635 0.0308474 0.0751572 0.0246165 2650 