LIGGGHTS (Version LIGGGHTS-PUBLIC 3.8.0, compiled 2022-11-07-16:55:38 by serperd1, git commit 86544c3f1215bc9744d7929e3eacf53ba086af9e)
Created orthogonal box = (-0.15 -0.15 -0.15) to (0.15 0.15 0.15)
  2 by 4 by 5 MPI processor grid

Reading STL file 'cone.stl' (mesh processing step 1/3) 

Reading STL file 'in_cyl.stl' (mesh processing step 1/3) 

Reading STL file 'top_cyl.stl' (mesh processing step 1/3) 

Reading STL file 'bot_cyl.stl' (mesh processing step 1/3) 

Reading STL file 'bottom_disk.stl' (mesh processing step 1/3) 

Reading STL file 'top_disk.stl' (mesh processing step 1/3) 
Fix particledistribution/discrete (id prob_par): distribution based on mass%:
    r_0to10p: d=1.260000e-04 (max. bounding sphere) mass%=10.000000%
    r_10to50p: d=3.492000e-04 (max. bounding sphere) mass%=40.000000%
    r_50to90p: d=1.269900e-03 (max. bounding sphere) mass%=40.000000%
    r_90to100p: d=1.968300e-03 (max. bounding sphere) mass%=10.000000%
Fix particledistribution/discrete (id prob_par): distribution based on number%:
    r_0to10p: d=1.260000e-04 (max. bounding sphere) number%=83.887052%
    r_10to50p: d=3.492000e-04 (max. bounding sphere) number%=15.763181%
    r_50to90p: d=1.269900e-03 (max. bounding sphere) number%=0.327762%
    r_90to100p: d=1.968300e-03 (max. bounding sphere) number%=0.022006%
Setting up run at Sat Dec 24 08:32:58 2022

Import and parallelization of mesh cone_mesh containing 868 triangle(s) successful
Import and parallelization of mesh inlet_cyl_wall_mesh containing 1064 triangle(s) successful
Import and parallelization of mesh top_cyl_wall_mesh containing 682 triangle(s) successful
Import and parallelization of mesh bot_cyl_wall_mesh containing 1280 triangle(s) successful
Import and parallelization of mesh bot_disk_wall_mesh containing 1682 triangle(s) successful
Import and parallelization of mesh top_disk_wall_mesh containing 1144 triangle(s) successful
Memory usage per processor = 955.842 Mbytes
    Step    Atoms         KinEng            CPU 
       0        0              0              0 
Loop time of 6.35135e-05 on 40 procs for 0 steps with 0 atoms, finish time Sat Dec 24 08:32:58 2022


Pair  time (%) = 0 (0)
Neigh time (%) = 0 (0)
Comm  time (%) = 0 (0)
Outpt time (%) = 0 (0)
Other time (%) = 6.35135e-05 (100)

Nlocal:    0 ave 0 max 0 min
Histogram: 40 0 0 0 0 0 0 0 0 0
Nghost:    0 ave 0 max 0 min
Histogram: 40 0 0 0 0 0 0 0 0 0
Neighs:    0 ave 0 max 0 min
Histogram: 40 0 0 0 0 0 0 0 0 0

Total # of neighbors = 0
Neighbor list builds = 0
Dangerous builds = 0
Setting up run at Sat Dec 24 08:32:58 2022

Memory usage per processor = 955.842 Mbytes
    Step    Atoms         KinEng            CPU 
       0        0              0              0 
       1        0              0    0.009766762 
Loop time of 0.00979034 on 40 procs for 1 steps with 0 atoms, finish time Sat Dec 24 08:32:58 2022


Pair  time (%) = 2.2382e-06 (0.0228613)
Neigh time (%) = 0 (0)
Comm  time (%) = 0.000205732 (2.10138)
Outpt time (%) = 0.000113925 (1.16365)
Other time (%) = 0.00946845 (96.7121)

Nlocal:    0 ave 0 max 0 min
Histogram: 40 0 0 0 0 0 0 0 0 0
Nghost:    0 ave 0 max 0 min
Histogram: 40 0 0 0 0 0 0 0 0 0
Neighs:    0 ave 0 max 0 min
Histogram: 40 0 0 0 0 0 0 0 0 0

Total # of neighbors = 0
Neighbor list builds = 0
Dangerous builds = 0
Scanning dump file ...
Reading snapshot from dump file ...
  orthogonal box = (-0.15 -0.15 -0.15) to (0.15 0.15 0.15)
  0 atoms before read
  1331 atoms in snapshot
  0 atoms purged
  0 atoms replaced
  0 atoms trimmed
  1331 atoms added
  1331 atoms after read
Setting atom values ...
  1331 settings made for type
  1331 settings made for density
  1331 settings made for vy
Setting up run at Sat Dec 24 08:32:58 2022

Memory usage per processor = 960.195 Mbytes
    Step    Atoms         KinEng            CPU 
       1     1331    2.04396e-07              0 
       2     1331  2.5455856e-07    0.009209252 
Loop time of 0.00921697 on 40 procs for 1 steps with 1331 atoms, finish time Sat Dec 24 08:32:58 2022


Pair  time (%) = 2.62492e-06 (0.0284793)
Neigh time (%) = 0 (0)
Comm  time (%) = 6.2304e-06 (0.0675971)
Outpt time (%) = 0.000167634 (1.81876)
Other time (%) = 0.00904048 (98.0852)

Nlocal:    33.275 ave 555 max 0 min
Histogram: 36 0 2 0 0 0 0 0 0 2
Nghost:    13.575 ave 173 max 0 min
Histogram: 36 0 0 0 0 1 1 0 0 2
Neighs:    10.175 ave 168 max 0 min
Histogram: 36 0 2 0 0 0 0 0 0 2

Total # of neighbors = 407
Ave neighs/atom = 0.305785
Neighbor list builds = 0
Dangerous builds = 0
Setting up run at Sat Dec 24 08:32:58 2022

Memory usage per processor = 960.195 Mbytes
    Step    Atoms         KinEng            CPU 
       2     1331  2.5455856e-07              0 
  205763     1331  6.9273694e-05      1992.6797 
Loop time of 1992.68 on 40 procs for 205761 steps with 1331 atoms, finish time Sat Dec 24 09:06:11 2022


Pair  time (%) = 0.495109 (0.0248464)
Neigh time (%) = 0.41269 (0.0207103)
Comm  time (%) = 1.2052 (0.0604814)
Outpt time (%) = 0.000249226 (1.25071e-05)
Other time (%) = 1990.57 (99.8939)

Nlocal:    33.275 ave 551 max 0 min
Histogram: 36 0 2 0 0 0 0 0 0 2
Nghost:    13.8 ave 171 max 0 min
Histogram: 36 0 0 0 0 1 1 0 0 2
Neighs:    11.175 ave 191 max 0 min
Histogram: 36 1 1 0 0 0 0 0 1 1

Total # of neighbors = 447
Ave neighs/atom = 0.335838
Neighbor list builds = 550
Dangerous builds = 0
Setting up run at Sat Dec 24 09:06:11 2022

Memory usage per processor = 960.195 Mbytes
    Step    Atoms         KinEng            CPU 
  205763     1331  6.9273694e-05              0 
  411524     1331  0.00040217614      1999.0357 
Loop time of 1999.04 on 40 procs for 205761 steps with 1331 atoms, finish time Sat Dec 24 09:39:30 2022


Pair  time (%) = 0.500724 (0.0250483)
Neigh time (%) = 0.410617 (0.0205408)
Comm  time (%) = 1.24403 (0.0622316)
Outpt time (%) = 0.00055461 (2.77438e-05)
Other time (%) = 1996.88 (99.8922)

Nlocal:    33.275 ave 538 max 0 min
Histogram: 36 0 2 0 0 0 0 0 0 2
Nghost:    13.625 ave 169 max 0 min
Histogram: 36 0 0 0 0 1 1 0 0 2
Neighs:    11.725 ave 197 max 0 min
Histogram: 36 1 1 0 0 0 0 0 0 2

Total # of neighbors = 469
Ave neighs/atom = 0.352367
Neighbor list builds = 550
Dangerous builds = 0
Setting up run at Sat Dec 24 09:39:30 2022

Memory usage per processor = 960.195 Mbytes
    Step    Atoms         KinEng            CPU 
  411524     1331  0.00040217614              0 
  617285     1331  0.00067128357      1982.6266 
Loop time of 1982.63 on 40 procs for 205761 steps with 1331 atoms, finish time Sat Dec 24 10:12:32 2022


Pair  time (%) = 0.499572 (0.0251975)
Neigh time (%) = 0.411724 (0.0207666)
Comm  time (%) = 1.25684 (0.0633929)
Outpt time (%) = 0.000573313 (2.89168e-05)
Other time (%) = 1980.46 (99.8906)

Nlocal:    33.275 ave 522 max 0 min
Histogram: 36 0 2 0 0 0 0 0 0 2
Nghost:    13.05 ave 158 max 0 min
Histogram: 36 0 0 0 0 0 1 1 0 2
Neighs:    11.9 ave 190 max 0 min
Histogram: 36 0 2 0 0 0 0 0 0 2

Total # of neighbors = 476
Ave neighs/atom = 0.357626
Neighbor list builds = 550
Dangerous builds = 0
Setting up run at Sat Dec 24 10:12:33 2022

Memory usage per processor = 960.195 Mbytes
    Step    Atoms         KinEng            CPU 
  617285     1331  0.00067128357              0 
  823046     1331    0.028848605      1997.0196 
Loop time of 1997.02 on 40 procs for 205761 steps with 1331 atoms, finish time Sat Dec 24 10:45:50 2022


Pair  time (%) = 0.510844 (0.0255803)
Neigh time (%) = 1.91562 (0.0959238)
Comm  time (%) = 2.48192 (0.124281)
Outpt time (%) = 0.000272736 (1.36572e-05)
Other time (%) = 1992.11 (99.7542)

Nlocal:    33.275 ave 512 max 0 min
Histogram: 36 0 1 1 0 0 0 0 0 2
Nghost:    12.925 ave 161 max 0 min
Histogram: 36 0 0 0 0 1 1 0 0 2
Neighs:    12.575 ave 203 max 0 min
Histogram: 36 0 2 0 0 0 0 0 0 2

Total # of neighbors = 503
Ave neighs/atom = 0.377911
Neighbor list builds = 2413
Dangerous builds = 0
Setting up run at Sat Dec 24 10:45:50 2022

Memory usage per processor = 960.195 Mbytes
    Step    Atoms         KinEng            CPU 
  823046     1331    0.028848605              0 
 1028807     1330    0.019239155      1998.7707 
Loop time of 1998.77 on 40 procs for 205761 steps with 1330 atoms, finish time Sat Dec 24 11:19:08 2022


Pair  time (%) = 0.51385 (0.0257083)
Neigh time (%) = 2.64024 (0.132093)
Comm  time (%) = 2.86487 (0.143331)
Outpt time (%) = 0.000600489 (3.00429e-05)
Other time (%) = 1992.75 (99.6988)

Nlocal:    33.25 ave 498 max 0 min
Histogram: 36 0 1 1 0 0 0 0 0 2
Nghost:    12.25 ave 159 max 0 min
Histogram: 36 0 0 0 0 1 1 0 0 2
Neighs:    12.65 ave 194 max 0 min
Histogram: 36 0 1 1 0 0 0 0 0 2

Total # of neighbors = 506
Ave neighs/atom = 0.380451
Neighbor list builds = 3312
Dangerous builds = 117
Setting up run at Sat Dec 24 11:19:08 2022

Memory usage per processor = 960.195 Mbytes
    Step    Atoms         KinEng            CPU 
 1028807     1330    0.019239155              0 
 1234568     1328    0.017941032      1996.3873 
Loop time of 1996.39 on 40 procs for 205761 steps with 1328 atoms, finish time Sat Dec 24 11:52:25 2022


Pair  time (%) = 0.509966 (0.0255444)
Neigh time (%) = 2.47452 (0.12395)
Comm  time (%) = 2.64015 (0.132246)
Outpt time (%) = 0.000344241 (1.72432e-05)
Other time (%) = 1990.76 (99.7182)

Nlocal:    33.2 ave 496 max 0 min
Histogram: 36 0 1 1 0 0 0 0 0 2
Nghost:    11.675 ave 155 max 0 min
Histogram: 36 0 0 0 0 2 0 0 1 1
Neighs:    11.9 ave 183 max 0 min
Histogram: 36 0 1 1 0 0 0 0 0 2

Total # of neighbors = 476
Ave neighs/atom = 0.358434
Neighbor list builds = 3093
Dangerous builds = 160
Setting up run at Sat Dec 24 11:52:25 2022

Memory usage per processor = 960.195 Mbytes
    Step    Atoms         KinEng            CPU 
 1234568     1328    0.017941032              0 
 1440329     1327   0.0079769341      2000.4651 
Loop time of 2000.47 on 40 procs for 205761 steps with 1327 atoms, finish time Sat Dec 24 12:25:45 2022


Pair  time (%) = 0.515346 (0.0257613)
Neigh time (%) = 2.78354 (0.139145)
Comm  time (%) = 2.99687 (0.149808)
Outpt time (%) = 0.000559544 (2.79707e-05)
Other time (%) = 1994.17 (99.6853)

Nlocal:    33.175 ave 490 max 0 min
Histogram: 36 0 1 1 0 0 0 0 0 2
Nghost:    11 ave 140 max 0 min
Histogram: 36 0 0 0 0 1 1 0 0 2
Neighs:    11.925 ave 180 max 0 min
Histogram: 36 0 0 1 1 0 0 0 0 2

Total # of neighbors = 477
Ave neighs/atom = 0.359457
Neighbor list builds = 3463
Dangerous builds = 80
Setting up run at Sat Dec 24 12:25:46 2022

Memory usage per processor = 960.195 Mbytes
    Step    Atoms         KinEng            CPU 
 1440329     1327   0.0079769341              0 
 1646090     1327   0.0056609386      1997.2612 
Loop time of 1997.26 on 40 procs for 205761 steps with 1327 atoms, finish time Sat Dec 24 12:59:03 2022


Pair  time (%) = 0.509896 (0.0255298)
Neigh time (%) = 2.35956 (0.11814)
Comm  time (%) = 2.23118 (0.111712)
Outpt time (%) = 0.000318534 (1.59486e-05)
Other time (%) = 1992.16 (99.7446)

Nlocal:    33.175 ave 487 max 0 min
Histogram: 36 0 0 2 0 0 0 0 0 2
Nghost:    10.575 ave 135 max 0 min
Histogram: 36 0 0 0 0 2 0 0 0 2
Neighs:    11.725 ave 178 max 0 min
Histogram: 36 0 0 2 0 0 0 0 0 2

Total # of neighbors = 469
Ave neighs/atom = 0.353429
Neighbor list builds = 2927
Dangerous builds = 0
Setting up run at Sat Dec 24 12:59:03 2022

Memory usage per processor = 960.195 Mbytes
    Step    Atoms         KinEng            CPU 
 1646090     1327   0.0056609386              0 
 1851851     1327    0.016662378      1986.3702 
Loop time of 1986.37 on 40 procs for 205761 steps with 1327 atoms, finish time Sat Dec 24 13:32:09 2022


Pair  time (%) = 0.511327 (0.0257418)
Neigh time (%) = 1.1883 (0.0598225)
Comm  time (%) = 1.78461 (0.0898428)
Outpt time (%) = 0.000490132 (2.46748e-05)
Other time (%) = 1982.89 (99.8246)

Nlocal:    33.175 ave 485 max 0 min
Histogram: 36 0 1 1 0 0 0 0 0 2
Nghost:    10.375 ave 139 max 0 min
Histogram: 36 0 0 0 0 2 0 0 1 1
Neighs:    11.65 ave 177 max 0 min
Histogram: 36 0 0 2 0 0 0 0 0 2

Total # of neighbors = 466
Ave neighs/atom = 0.351168
Neighbor list builds = 1487
Dangerous builds = 0
Setting up run at Sat Dec 24 13:32:09 2022

Memory usage per processor = 960.195 Mbytes
    Step    Atoms         KinEng            CPU 
 1851851     1327    0.016662378              0 
 2057612     1325   0.0093014694       2003.728 
Loop time of 2003.73 on 40 procs for 205761 steps with 1325 atoms, finish time Sat Dec 24 14:05:33 2022


Pair  time (%) = 0.511872 (0.025546)
Neigh time (%) = 3.15373 (0.157393)
Comm  time (%) = 4.61724 (0.230432)
Outpt time (%) = 0.000208705 (1.04158e-05)
Other time (%) = 1995.45 (99.5866)

Nlocal:    33.125 ave 480 max 0 min
Histogram: 36 0 0 2 0 0 0 0 0 2
Nghost:    10.275 ave 135 max 0 min
Histogram: 36 0 0 0 0 1 1 0 1 1
Neighs:    11.2 ave 175 max 0 min
Histogram: 36 0 0 2 0 0 0 0 0 2

Total # of neighbors = 448
Ave neighs/atom = 0.338113
Neighbor list builds = 3903
Dangerous builds = 7
Setting up run at Sat Dec 24 14:05:33 2022

Memory usage per processor = 960.195 Mbytes
    Step    Atoms         KinEng            CPU 
 2057612     1325   0.0093014694              0 
 2263373     1324   0.0068728499      1991.8878 
Loop time of 1991.89 on 40 procs for 205761 steps with 1324 atoms, finish time Sat Dec 24 14:38:45 2022


Pair  time (%) = 0.508942 (0.0255507)
Neigh time (%) = 2.03376 (0.102102)
Comm  time (%) = 3.06648 (0.153948)
Outpt time (%) = 0.000579936 (2.91149e-05)
Other time (%) = 1986.28 (99.7184)

Nlocal:    33.1 ave 477 max 0 min
Histogram: 36 0 2 0 0 0 0 0 0 2
Nghost:    10.05 ave 125 max 0 min
Histogram: 36 0 0 0 0 0 2 0 0 2
Neighs:    10.7 ave 170 max 0 min
Histogram: 36 0 1 1 0 0 0 0 0 2

Total # of neighbors = 428
Ave neighs/atom = 0.323263
Neighbor list builds = 2529
Dangerous builds = 105
Setting up run at Sat Dec 24 14:38:45 2022

Memory usage per processor = 960.195 Mbytes
    Step    Atoms         KinEng            CPU 
 2263373     1324   0.0068728499              0 
 2469134     1317    0.023252555      2092.6196 
Loop time of 2092.62 on 40 procs for 205761 steps with 1317 atoms, finish time Sat Dec 24 15:13:38 2022


Pair  time (%) = 0.51168 (0.0244516)
Neigh time (%) = 4.2755 (0.204313)
Comm  time (%) = 5.90723 (0.282289)
Outpt time (%) = 0.000307897 (1.47135e-05)
Other time (%) = 2081.93 (99.4889)

Nlocal:    32.925 ave 481 max 0 min
Histogram: 36 0 2 0 0 0 0 0 0 2
Nghost:    9.45 ave 124 max 0 min
Histogram: 36 0 0 0 0 1 1 1 0 1
Neighs:    10.775 ave 176 max 0 min
Histogram: 36 1 1 0 0 0 0 0 0 2

Total # of neighbors = 431
Ave neighs/atom = 0.327259
Neighbor list builds = 5350
Dangerous builds = 1209
Setting up run at Sat Dec 24 15:13:38 2022

Memory usage per processor = 960.195 Mbytes
    Step    Atoms         KinEng            CPU 
 2469134     1317    0.023252555              0 
 2674895     1316    0.087729205      2176.2253 
Loop time of 2176.23 on 40 procs for 205761 steps with 1316 atoms, finish time Sat Dec 24 15:49:54 2022


Pair  time (%) = 0.516402 (0.0237293)
Neigh time (%) = 5.30913 (0.24396)
Comm  time (%) = 6.95869 (0.31976)
Outpt time (%) = 0.000544337 (2.50129e-05)
Other time (%) = 2163.44 (99.4125)

Nlocal:    32.9 ave 481 max 0 min
Histogram: 36 0 1 1 0 0 0 0 0 2
Nghost:    9.425 ave 115 max 0 min
Histogram: 36 0 0 0 0 0 2 0 1 1
Neighs:    10.625 ave 178 max 0 min
Histogram: 36 1 0 1 0 0 0 0 1 1

Total # of neighbors = 425
Ave neighs/atom = 0.322948
Neighbor list builds = 6598
Dangerous builds = 814
Setting up run at Sat Dec 24 15:49:54 2022

Memory usage per processor = 960.195 Mbytes
    Step    Atoms         KinEng            CPU 
 2674895     1316    0.087729205              0 
 2880656     1314    0.059308517      2234.9123 
Loop time of 2234.91 on 40 procs for 205761 steps with 1314 atoms, finish time Sat Dec 24 16:27:09 2022


Pair  time (%) = 0.518446 (0.0231976)
Neigh time (%) = 8.52579 (0.381482)
Comm  time (%) = 11.7315 (0.524921)
Outpt time (%) = 0.000298465 (1.33547e-05)
Other time (%) = 2214.14 (99.0704)

Nlocal:    32.85 ave 481 max 0 min
Histogram: 36 0 2 0 0 0 0 0 0 2
Nghost:    9.65 ave 119 max 0 min
Histogram: 36 0 0 0 0 0 2 0 1 1
Neighs:    10.15 ave 169 max 0 min
Histogram: 36 1 1 0 0 0 0 0 0 2

Total # of neighbors = 406
Ave neighs/atom = 0.30898
Neighbor list builds = 10473
Dangerous builds = 2
Setting up run at Sat Dec 24 16:27:09 2022

Memory usage per processor = 960.195 Mbytes
    Step    Atoms         KinEng            CPU 
 2880656     1314    0.059308517              0 
 3086417     1309    0.030725946      2118.2997 
Loop time of 2118.3 on 40 procs for 205761 steps with 1309 atoms, finish time Sat Dec 24 17:02:27 2022


Pair  time (%) = 0.513255 (0.0242296)
Neigh time (%) = 7.07794 (0.334133)
Comm  time (%) = 8.64309 (0.40802)
Outpt time (%) = 0.0237655 (0.00112191)
Other time (%) = 2102.04 (99.2325)

Nlocal:    32.725 ave 483 max 0 min
Histogram: 36 0 2 0 0 0 0 0 0 2
Nghost:    9.4 ave 123 max 0 min
Histogram: 36 0 0 0 0 0 2 1 0 1
Neighs:    9.625 ave 166 max 0 min
Histogram: 36 1 1 0 0 0 0 0 0 2

Total # of neighbors = 385
Ave neighs/atom = 0.294118
Neighbor list builds = 8685
Dangerous builds = 273
Setting up run at Sat Dec 24 17:02:28 2022

Memory usage per processor = 960.195 Mbytes
    Step    Atoms         KinEng            CPU 
 3086417     1309    0.030725946              0 
 3292178     1307    0.035191181      2168.3374 
Loop time of 2168.34 on 40 procs for 205761 steps with 1307 atoms, finish time Sat Dec 24 17:38:36 2022


Pair  time (%) = 0.509757 (0.0235091)
Neigh time (%) = 9.39498 (0.43328)
Comm  time (%) = 13.8802 (0.640131)
Outpt time (%) = 0.000235956 (1.08819e-05)
Other time (%) = 2144.55 (98.9031)

Nlocal:    32.675 ave 482 max 0 min
Histogram: 36 0 2 0 0 0 0 0 0 2
Nghost:    9.275 ave 119 max 0 min
Histogram: 36 0 0 0 0 0 2 1 0 1
Neighs:    9.85 ave 166 max 0 min
Histogram: 36 1 1 0 0 0 0 0 0 2

Total # of neighbors = 394
Ave neighs/atom = 0.301454
Neighbor list builds = 11627
Dangerous builds = 3322
Setting up run at Sat Dec 24 17:38:36 2022

Memory usage per processor = 960.195 Mbytes
    Step    Atoms         KinEng            CPU 
 3292178     1307    0.035191181              0 
 3497939     1305     0.09643494      2178.6176 
Loop time of 2178.62 on 40 procs for 205761 steps with 1305 atoms, finish time Sat Dec 24 18:14:55 2022


Pair  time (%) = 0.503969 (0.0231325)
Neigh time (%) = 7.30971 (0.335521)
Comm  time (%) = 13.2874 (0.609902)
Outpt time (%) = 0.000566817 (2.60173e-05)
Other time (%) = 2157.52 (99.0314)

Nlocal:    32.625 ave 475 max 0 min
Histogram: 36 0 2 0 0 0 0 0 0 2
Nghost:    8.975 ave 109 max 0 min
Histogram: 36 0 0 0 0 0 2 0 1 1
Neighs:    9.15 ave 162 max 0 min
Histogram: 37 1 0 0 0 0 0 0 0 2

Total # of neighbors = 366
Ave neighs/atom = 0.28046
Neighbor list builds = 8912
Dangerous builds = 27
Setting up run at Sat Dec 24 18:14:55 2022

Memory usage per processor = 960.195 Mbytes
    Step    Atoms         KinEng            CPU 
 3497939     1305     0.09643494              0 
 3703700     1301    0.043452184      2158.4964 
Loop time of 2158.5 on 40 procs for 205761 steps with 1301 atoms, finish time Sat Dec 24 18:50:53 2022


Pair  time (%) = 0.511719 (0.0237072)
Neigh time (%) = 7.93518 (0.367625)
Comm  time (%) = 13.6552 (0.632624)
Outpt time (%) = 4.67291e-05 (2.16489e-06)
Other time (%) = 2136.39 (98.976)

Nlocal:    32.525 ave 467 max 0 min
Histogram: 36 0 2 0 0 0 0 0 0 2
Nghost:    8.475 ave 106 max 0 min
Histogram: 36 0 0 0 0 0 2 0 1 1
Neighs:    9.275 ave 160 max 0 min
Histogram: 36 2 0 0 0 0 0 0 0 2

Total # of neighbors = 371
Ave neighs/atom = 0.285165
Neighbor list builds = 9693
Dangerous builds = 1448
Setting up run at Sat Dec 24 18:50:53 2022

Memory usage per processor = 960.195 Mbytes
    Step    Atoms         KinEng            CPU 
 3703700     1301    0.043452184              0 
 3909461     1297     0.03533883      2120.3453 
Loop time of 2120.35 on 40 procs for 205761 steps with 1297 atoms, finish time Sat Dec 24 19:26:14 2022


Pair  time (%) = 0.519041 (0.0244791)
Neigh time (%) = 11.7504 (0.554175)
Comm  time (%) = 17.7437 (0.836832)
Outpt time (%) = 0.000537435 (2.53466e-05)
Other time (%) = 2090.33 (98.5845)

Nlocal:    32.425 ave 468 max 0 min
Histogram: 36 0 2 0 0 0 0 0 0 2
Nghost:    8.425 ave 105 max 0 min
Histogram: 36 0 0 0 0 0 2 1 0 1
Neighs:    9.175 ave 162 max 0 min
Histogram: 36 2 0 0 0 0 0 0 0 2

Total # of neighbors = 367
Ave neighs/atom = 0.282961
Neighbor list builds = 14502
Dangerous builds = 5461
Setting up run at Sat Dec 24 19:26:14 2022

Memory usage per processor = 960.195 Mbytes
    Step    Atoms         KinEng            CPU 
 3909461     1297     0.03533883              0 
 4115222     1287    0.052444456      2081.3291 
Loop time of 2081.33 on 40 procs for 205761 steps with 1287 atoms, finish time Sat Dec 24 20:00:55 2022


Pair  time (%) = 0.505705 (0.0242972)
Neigh time (%) = 6.89889 (0.331466)
Comm  time (%) = 11.0616 (0.531466)
Outpt time (%) = 0.000502757 (2.41556e-05)
Other time (%) = 2062.86 (99.1127)

Nlocal:    32.175 ave 471 max 0 min
Histogram: 36 0 2 0 0 0 0 0 0 2
Nghost:    8.5 ave 105 max 0 min
Histogram: 36 0 0 0 0 0 2 1 0 1
Neighs:    8.675 ave 154 max 0 min
Histogram: 36 2 0 0 0 0 0 0 0 2

Total # of neighbors = 347
Ave neighs/atom = 0.269619
Neighbor list builds = 8515
Dangerous builds = 3095
Setting up run at Sat Dec 24 20:00:55 2022

Memory usage per processor = 960.195 Mbytes
    Step    Atoms         KinEng            CPU 
 4115222     1287    0.052444456              0 
 4320983     1279    0.041439544      2152.3505 
Loop time of 2152.35 on 40 procs for 205761 steps with 1279 atoms, finish time Sat Dec 24 20:36:48 2022


Pair  time (%) = 0.488848 (0.0227123)
Neigh time (%) = 4.83758 (0.224758)
Comm  time (%) = 9.52772 (0.442665)
Outpt time (%) = 0.000290872 (1.35141e-05)
Other time (%) = 2137.5 (99.3099)

Nlocal:    31.975 ave 468 max 0 min
Histogram: 35 1 2 0 0 0 0 0 0 2
Nghost:    8.45 ave 103 max 0 min
Histogram: 36 0 0 0 0 0 2 0 1 1
Neighs:    8.375 ave 156 max 0 min
Histogram: 36 2 0 0 0 0 0 0 1 1

Total # of neighbors = 335
Ave neighs/atom = 0.261923
Neighbor list builds = 5887
Dangerous builds = 589
Setting up run at Sat Dec 24 20:36:48 2022

Memory usage per processor = 960.195 Mbytes
    Step    Atoms         KinEng            CPU 
 4320983     1279    0.041439544              0 
 4526744     1273    0.056262714       2148.648 
Loop time of 2148.65 on 40 procs for 205761 steps with 1273 atoms, finish time Sat Dec 24 21:12:36 2022


Pair  time (%) = 0.491661 (0.0228823)
Neigh time (%) = 8.24283 (0.383629)
Comm  time (%) = 15.6646 (0.729045)
Outpt time (%) = 0.000522926 (2.43374e-05)
Other time (%) = 2124.25 (98.8644)

Nlocal:    31.825 ave 473 max 0 min
Histogram: 36 0 2 0 0 0 0 0 1 1
Nghost:    8.625 ave 101 max 0 min
Histogram: 36 0 0 0 0 0 2 0 1 1
Neighs:    7.5 ave 147 max 0 min
Histogram: 36 2 0 0 0 0 0 0 1 1

Total # of neighbors = 300
Ave neighs/atom = 0.235664
Neighbor list builds = 10015
Dangerous builds = 650
Setting up run at Sat Dec 24 21:12:36 2022

Memory usage per processor = 960.195 Mbytes
    Step    Atoms         KinEng            CPU 
 4526744     1273    0.056262714              0 
 4732505     1270    0.050938866        2086.84 
Loop time of 2086.84 on 40 procs for 205761 steps with 1270 atoms, finish time Sat Dec 24 21:47:23 2022


Pair  time (%) = 0.482615 (0.0231266)
Neigh time (%) = 4.63685 (0.222195)
Comm  time (%) = 10.0851 (0.483272)
Outpt time (%) = 0.00034414 (1.6491e-05)
Other time (%) = 2071.64 (99.2714)

Nlocal:    31.75 ave 469 max 0 min
Histogram: 34 2 2 0 0 0 0 0 1 1
Nghost:    8.6 ave 97 max 0 min
Histogram: 36 0 0 0 0 0 2 0 0 2
Neighs:    7.25 ave 141 max 0 min
Histogram: 37 1 0 0 0 0 0 0 1 1

Total # of neighbors = 290
Ave neighs/atom = 0.228346
Neighbor list builds = 5661
Dangerous builds = 420
Setting up run at Sat Dec 24 21:47:23 2022

Memory usage per processor = 960.195 Mbytes
    Step    Atoms         KinEng            CPU 
 4732505     1270    0.050938866              0 
 4938266     1264    0.071669181      2111.7252 
Loop time of 2111.73 on 40 procs for 205761 steps with 1264 atoms, finish time Sat Dec 24 22:22:35 2022


Pair  time (%) = 0.487391 (0.0230802)
Neigh time (%) = 7.01979 (0.33242)
Comm  time (%) = 13.1368 (0.622087)
Outpt time (%) = 0.000575901 (2.72716e-05)
Other time (%) = 2091.08 (99.0224)

Nlocal:    31.6 ave 475 max 0 min
Histogram: 36 0 2 0 0 0 0 0 1 1
Nghost:    8.8 ave 102 max 0 min
Histogram: 36 0 0 0 0 0 2 0 0 2
Neighs:    7.375 ave 150 max 0 min
Histogram: 37 1 0 0 0 0 0 1 0 1

Total # of neighbors = 295
Ave neighs/atom = 0.233386
Neighbor list builds = 8626
Dangerous builds = 2858
Setting up run at Sat Dec 24 22:22:35 2022

Memory usage per processor = 960.195 Mbytes
    Step    Atoms         KinEng            CPU 
 4938266     1264    0.071669181              0 
 5144027     1259    0.068121565      2025.8142 
Loop time of 2025.81 on 40 procs for 205761 steps with 1259 atoms, finish time Sat Dec 24 22:56:21 2022


Pair  time (%) = 0.483041 (0.0238443)
Neigh time (%) = 4.9898 (0.246311)
Comm  time (%) = 9.03506 (0.445996)
Outpt time (%) = 0.000264803 (1.30714e-05)
Other time (%) = 2011.31 (99.2838)

Nlocal:    31.475 ave 477 max 0 min
Histogram: 35 1 2 0 0 0 0 0 1 1
Nghost:    8.4 ave 94 max 0 min
Histogram: 36 0 0 0 0 0 0 2 0 2
Neighs:    7.3 ave 138 max 0 min
Histogram: 37 1 0 0 0 0 0 0 1 1

Total # of neighbors = 292
Ave neighs/atom = 0.23193
Neighbor list builds = 6073
Dangerous builds = 205
Setting up run at Sat Dec 24 22:56:21 2022

Memory usage per processor = 960.195 Mbytes
    Step    Atoms         KinEng            CPU 
 5144027     1259    0.068121565              0 
 5349788     1250    0.072191697      2036.1168 
Loop time of 2036.12 on 40 procs for 205761 steps with 1250 atoms, finish time Sat Dec 24 23:30:17 2022


Pair  time (%) = 0.4788 (0.0235153)
Neigh time (%) = 6.61161 (0.324717)
Comm  time (%) = 13.08 (0.642399)
Outpt time (%) = 0.00054138 (2.65888e-05)
Other time (%) = 2015.95 (99.0093)

Nlocal:    31.25 ave 480 max 0 min
Histogram: 35 1 2 0 0 0 0 0 1 1
Nghost:    8.625 ave 103 max 0 min
Histogram: 36 0 0 0 0 0 2 1 0 1
Neighs:    7.2 ave 146 max 0 min
Histogram: 37 1 0 0 0 0 1 0 0 1

Total # of neighbors = 288
Ave neighs/atom = 0.2304
Neighbor list builds = 8040
Dangerous builds = 173
Setting up run at Sat Dec 24 23:30:17 2022

Memory usage per processor = 960.195 Mbytes
    Step    Atoms         KinEng            CPU 
 5349788     1250    0.072191697              0 
 5555549     1246    0.063154113      2015.7699 
Loop time of 2015.77 on 40 procs for 205761 steps with 1246 atoms, finish time Sun Dec 25 00:03:53 2022


Pair  time (%) = 0.482258 (0.0239243)
Neigh time (%) = 3.97629 (0.197259)
Comm  time (%) = 8.35162 (0.414314)
Outpt time (%) = 0.000299667 (1.48661e-05)
Other time (%) = 2002.96 (99.3645)

Nlocal:    31.15 ave 469 max 0 min
Histogram: 35 1 2 0 0 0 0 0 1 1
Nghost:    8.525 ave 98 max 0 min
Histogram: 35 1 0 0 0 0 2 0 0 2
Neighs:    6.825 ave 147 max 0 min
Histogram: 37 1 0 0 0 1 0 0 0 1

Total # of neighbors = 273
Ave neighs/atom = 0.219101
Neighbor list builds = 4842
Dangerous builds = 19
Setting up run at Sun Dec 25 00:03:53 2022

Memory usage per processor = 960.195 Mbytes
    Step    Atoms         KinEng            CPU 
 5555549     1246    0.063154113              0 
 5761310     1240    0.087045995      2066.8579 
Loop time of 2066.86 on 40 procs for 205761 steps with 1240 atoms, finish time Sun Dec 25 00:38:20 2022


Pair  time (%) = 0.485233 (0.0234768)
Neigh time (%) = 7.99004 (0.386579)
Comm  time (%) = 15.915 (0.770008)
Outpt time (%) = 0.000552944 (2.67529e-05)
Other time (%) = 2042.47 (98.8199)

Nlocal:    31 ave 463 max 0 min
Histogram: 35 1 2 0 0 0 0 0 1 1
Nghost:    8.65 ave 96 max 0 min
Histogram: 35 1 0 0 0 0 2 0 0 2
Neighs:    6.775 ave 140 max 0 min
Histogram: 36 2 0 0 0 1 0 0 0 1

Total # of neighbors = 271
Ave neighs/atom = 0.218548
Neighbor list builds = 9718
Dangerous builds = 364
Setting up run at Sun Dec 25 00:38:20 2022

Memory usage per processor = 960.195 Mbytes
    Step    Atoms         KinEng            CPU 
 5761310     1240    0.087045995              0 
 5967071     1236     0.24849641      2076.4269 
Loop time of 2076.43 on 40 procs for 205761 steps with 1236 atoms, finish time Sun Dec 25 01:12:56 2022


Pair  time (%) = 0.490515 (0.023623)
Neigh time (%) = 9.9863 (0.480937)
Comm  time (%) = 19.304 (0.929673)
Outpt time (%) = 0.000306575 (1.47645e-05)
Other time (%) = 2046.65 (98.5658)

Nlocal:    30.9 ave 459 max 0 min
Histogram: 36 0 2 0 0 0 0 0 1 1
Nghost:    8.45 ave 106 max 0 min
Histogram: 36 0 0 0 0 2 0 0 1 1
Neighs:    6.425 ave 142 max 0 min
Histogram: 36 2 0 0 1 0 0 0 0 1

Total # of neighbors = 257
Ave neighs/atom = 0.207929
Neighbor list builds = 12223
Dangerous builds = 2536
Setting up run at Sun Dec 25 01:12:57 2022

Memory usage per processor = 960.195 Mbytes
    Step    Atoms         KinEng            CPU 
 5967071     1236     0.24849641              0 
 6172832     1226      0.2229023      2044.7555 
Loop time of 2044.76 on 40 procs for 205761 steps with 1226 atoms, finish time Sun Dec 25 01:47:01 2022


Pair  time (%) = 0.480565 (0.0235023)
Neigh time (%) = 7.27581 (0.355828)
Comm  time (%) = 15.3657 (0.751468)
Outpt time (%) = 0.000491176 (2.40212e-05)
Other time (%) = 2021.63 (98.8692)

Nlocal:    30.65 ave 458 max 0 min
Histogram: 34 2 2 0 0 0 0 0 1 1
Nghost:    8.075 ave 93 max 0 min
Histogram: 36 0 0 0 0 1 1 0 0 2
Neighs:    5.9 ave 126 max 0 min
Histogram: 36 2 0 0 0 1 0 0 0 1

Total # of neighbors = 236
Ave neighs/atom = 0.192496
Neighbor list builds = 8878
Dangerous builds = 153
Setting up run at Sun Dec 25 01:47:01 2022

Memory usage per processor = 960.195 Mbytes
    Step    Atoms         KinEng            CPU 
 6172832     1226      0.2229023              0 
 6378593     1219    0.064198298      2038.2325 
Loop time of 2038.23 on 40 procs for 205761 steps with 1219 atoms, finish time Sun Dec 25 02:21:00 2022


Pair  time (%) = 0.466692 (0.0228969)
Neigh time (%) = 6.32985 (0.310556)
Comm  time (%) = 13.7502 (0.674612)
Outpt time (%) = 0.000334676 (1.64199e-05)
Other time (%) = 2017.69 (98.9919)

Nlocal:    30.475 ave 457 max 0 min
Histogram: 35 1 2 0 0 0 0 1 0 1
Nghost:    8.025 ave 99 max 0 min
Histogram: 36 0 0 0 0 1 1 0 1 1
Neighs:    5.925 ave 132 max 0 min
Histogram: 37 1 0 0 1 0 0 0 0 1

Total # of neighbors = 237
Ave neighs/atom = 0.194422
Neighbor list builds = 7717
Dangerous builds = 626
Setting up run at Sun Dec 25 02:21:00 2022

Memory usage per processor = 960.195 Mbytes
    Step    Atoms         KinEng            CPU 
 6378593     1219    0.064198298              0 
 6584354     1213    0.059700289      2040.7868 
Loop time of 2040.79 on 40 procs for 205761 steps with 1213 atoms, finish time Sun Dec 25 02:55:01 2022


Pair  time (%) = 0.474942 (0.0232725)
Neigh time (%) = 5.92013 (0.290091)
Comm  time (%) = 11.2624 (0.551866)
Outpt time (%) = 0.000550634 (2.69815e-05)
Other time (%) = 2023.13 (99.1347)

Nlocal:    30.325 ave 449 max 0 min
Histogram: 34 2 2 0 0 0 0 1 0 1
Nghost:    7.425 ave 90 max 0 min
Histogram: 36 0 0 0 0 1 1 0 0 2
Neighs:    6.175 ave 147 max 0 min
Histogram: 37 1 0 0 1 0 0 0 0 1

Total # of neighbors = 247
Ave neighs/atom = 0.203627
Neighbor list builds = 7166
Dangerous builds = 179
Setting up run at Sun Dec 25 02:55:01 2022

Memory usage per processor = 960.195 Mbytes
    Step    Atoms         KinEng            CPU 
 6584354     1213    0.059700289              0 
 6790115     1203     0.05845456      2040.2905 
Loop time of 2040.29 on 40 procs for 205761 steps with 1203 atoms, finish time Sun Dec 25 03:29:01 2022


Pair  time (%) = 0.477606 (0.0234087)
Neigh time (%) = 6.66808 (0.32682)
Comm  time (%) = 11.349 (0.556244)
Outpt time (%) = 0.000267391 (1.31055e-05)
Other time (%) = 2021.8 (99.0935)

Nlocal:    30.075 ave 445 max 0 min
Histogram: 35 1 2 0 0 0 0 1 0 1
Nghost:    7.125 ave 88 max 0 min
Histogram: 36 0 0 0 0 2 0 0 0 2
Neighs:    6.1 ave 147 max 0 min
Histogram: 37 1 0 1 0 0 0 0 0 1

Total # of neighbors = 244
Ave neighs/atom = 0.202826
Neighbor list builds = 8075
Dangerous builds = 634
Setting up run at Sun Dec 25 03:29:01 2022

Memory usage per processor = 960.195 Mbytes
    Step    Atoms         KinEng            CPU 
 6790115     1203     0.05845456              0 
 6995876     1199    0.064296941      2089.8471 
Loop time of 2089.85 on 40 procs for 205761 steps with 1199 atoms, finish time Sun Dec 25 04:03:51 2022


Pair  time (%) = 0.481305 (0.0230306)
Neigh time (%) = 11.6679 (0.558315)
Comm  time (%) = 23.3465 (1.11714)
Outpt time (%) = 0.000539865 (2.58327e-05)
Other time (%) = 2054.35 (98.3015)

Nlocal:    29.975 ave 442 max 0 min
Histogram: 35 1 2 0 0 0 0 1 0 1
Nghost:    7.35 ave 86 max 0 min
Histogram: 36 0 0 0 1 1 0 0 0 2
Neighs:    5.575 ave 126 max 0 min
Histogram: 36 2 0 0 1 0 0 0 0 1

Total # of neighbors = 223
Ave neighs/atom = 0.185988
Neighbor list builds = 14282
Dangerous builds = 4886
Setting up run at Sun Dec 25 04:03:51 2022

Memory usage per processor = 960.195 Mbytes
    Step    Atoms         KinEng            CPU 
 6995876     1199    0.064296941              0 
 7201637     1195     0.11668766      2080.0888 
Loop time of 2080.09 on 40 procs for 205761 steps with 1195 atoms, finish time Sun Dec 25 04:38:31 2022


Pair  time (%) = 0.475784 (0.0228733)
Neigh time (%) = 9.86268 (0.474147)
Comm  time (%) = 18.85 (0.90621)
Outpt time (%) = 0.000594868 (2.85982e-05)
Other time (%) = 2050.9 (98.5967)

Nlocal:    29.875 ave 435 max 0 min
Histogram: 34 2 2 0 0 0 0 1 0 1
Nghost:    7.05 ave 89 max 0 min
Histogram: 36 0 0 0 1 1 0 0 0 2
Neighs:    5.55 ave 123 max 0 min
Histogram: 36 2 0 0 1 0 0 0 0 1

Total # of neighbors = 222
Ave neighs/atom = 0.185774
Neighbor list builds = 11927
Dangerous builds = 266
Setting up run at Sun Dec 25 04:38:31 2022

Memory usage per processor = 960.195 Mbytes
    Step    Atoms         KinEng            CPU 
 7201637     1195     0.11668766              0 
 7407398     1191    0.090217898      2066.4084 
Loop time of 2066.42 on 40 procs for 205761 steps with 1191 atoms, finish time Sun Dec 25 05:12:57 2022


Pair  time (%) = 0.477306 (0.0230982)
Neigh time (%) = 8.83074 (0.427345)
Comm  time (%) = 18.6204 (0.901093)
Outpt time (%) = 0.000308856 (1.49464e-05)
Other time (%) = 2038.49 (98.6484)

Nlocal:    29.775 ave 434 max 0 min
Histogram: 33 3 2 0 0 0 0 1 0 1
Nghost:    7.325 ave 96 max 0 min
Histogram: 36 0 0 1 1 0 0 0 1 1
Neighs:    5.35 ave 122 max 0 min
Histogram: 36 2 0 0 1 0 0 0 0 1

Total # of neighbors = 214
Ave neighs/atom = 0.179681
Neighbor list builds = 10670
Dangerous builds = 19
Setting up run at Sun Dec 25 05:12:58 2022

Memory usage per processor = 960.195 Mbytes
    Step    Atoms         KinEng            CPU 
 7407398     1191    0.090217898              0 
 7613159     1187    0.080050359      2065.0298 
Loop time of 2065.03 on 40 procs for 205761 steps with 1187 atoms, finish time Sun Dec 25 05:47:23 2022


Pair  time (%) = 0.476438 (0.0230717)
Neigh time (%) = 8.20576 (0.397368)
Comm  time (%) = 19.2309 (0.931267)
Outpt time (%) = 0.000536447 (2.59777e-05)
Other time (%) = 2037.12 (98.6483)

Nlocal:    29.675 ave 434 max 0 min
Histogram: 34 2 2 0 0 0 0 1 0 1
Nghost:    7.575 ave 94 max 0 min
Histogram: 35 1 0 1 0 1 0 0 1 1
Neighs:    5.15 ave 114 max 0 min
Histogram: 36 2 0 0 1 0 0 0 0 1

Total # of neighbors = 206
Ave neighs/atom = 0.173547
Neighbor list builds = 9899
Dangerous builds = 6
Setting up run at Sun Dec 25 05:47:23 2022

Memory usage per processor = 960.195 Mbytes
    Step    Atoms         KinEng            CPU 
 7613159     1187    0.080050359              0 
 7818920     1182    0.060422743       2062.167 
Loop time of 2062.17 on 40 procs for 205761 steps with 1182 atoms, finish time Sun Dec 25 06:21:45 2022


Pair  time (%) = 0.476049 (0.0230849)
Neigh time (%) = 8.42406 (0.408505)
Comm  time (%) = 19.2444 (0.933214)
Outpt time (%) = 0.000298132 (1.44572e-05)
Other time (%) = 2034.02 (98.6352)

Nlocal:    29.55 ave 432 max 0 min
Histogram: 34 2 2 0 0 0 0 1 0 1
Nghost:    7.075 ave 83 max 0 min
Histogram: 36 0 0 0 1 1 0 0 0 2
Neighs:    5.025 ave 115 max 0 min
Histogram: 37 1 0 0 1 0 0 0 0 1

Total # of neighbors = 201
Ave neighs/atom = 0.170051
Neighbor list builds = 10182
Dangerous builds = 398
Setting up run at Sun Dec 25 06:21:45 2022

Memory usage per processor = 960.195 Mbytes
    Step    Atoms         KinEng            CPU 
 7818920     1182    0.060422743              0 
 8024681     1175    0.077343829       2102.398 
Loop time of 2102.4 on 40 procs for 205761 steps with 1175 atoms, finish time Sun Dec 25 06:56:47 2022


Pair  time (%) = 0.481156 (0.0228861)
Neigh time (%) = 12.2712 (0.583678)
Comm  time (%) = 28.4838 (1.35483)
Outpt time (%) = 0.000572769 (2.72436e-05)
Other time (%) = 2061.16 (98.0386)

Nlocal:    29.375 ave 427 max 0 min
Histogram: 34 2 2 0 0 0 0 1 0 1
Nghost:    7.15 ave 87 max 0 min
Histogram: 36 0 0 0 1 1 0 0 1 1
Neighs:    5.35 ave 125 max 0 min
Histogram: 37 1 0 1 0 0 0 0 0 1

Total # of neighbors = 214
Ave neighs/atom = 0.182128
Neighbor list builds = 15029
Dangerous builds = 4294
Setting up run at Sun Dec 25 06:56:47 2022

Memory usage per processor = 960.195 Mbytes
    Step    Atoms         KinEng            CPU 
 8024681     1175    0.077343829              0 
 8230442     1161     0.11796337      2061.8819 
Loop time of 2061.88 on 40 procs for 205761 steps with 1161 atoms, finish time Sun Dec 25 07:31:09 2022


Pair  time (%) = 0.477711 (0.0231687)
Neigh time (%) = 9.10731 (0.441699)
Comm  time (%) = 19.3253 (0.937264)
Outpt time (%) = 0.000324792 (1.57522e-05)
Other time (%) = 2032.97 (98.5979)

Nlocal:    29.025 ave 425 max 0 min
Histogram: 33 3 2 0 0 0 0 1 0 1
Nghost:    6.95 ave 87 max 0 min
Histogram: 36 0 0 0 1 1 0 0 1 1
Neighs:    5.075 ave 111 max 0 min
Histogram: 36 2 0 0 1 0 0 0 0 1

Total # of neighbors = 203
Ave neighs/atom = 0.174849
Neighbor list builds = 11041
Dangerous builds = 635
Setting up run at Sun Dec 25 07:31:09 2022

Memory usage per processor = 960.195 Mbytes
    Step    Atoms         KinEng            CPU 
 8230442     1161     0.11796337              0 
 8436203     1149     0.10192688      2095.9736 
Loop time of 2095.97 on 40 procs for 205761 steps with 1149 atoms, finish time Sun Dec 25 08:06:05 2022


Pair  time (%) = 0.474154 (0.0226222)
Neigh time (%) = 10.4913 (0.500546)
Comm  time (%) = 24.4119 (1.1647)
Outpt time (%) = 0.000475152 (2.26698e-05)
Other time (%) = 2060.6 (98.3121)

Nlocal:    28.725 ave 420 max 0 min
Histogram: 34 2 2 0 0 0 0 1 0 1
Nghost:    6.85 ave 83 max 0 min
Histogram: 36 0 0 0 1 0 1 0 1 1
Neighs:    4.925 ave 104 max 0 min
Histogram: 37 0 1 0 1 0 0 0 0 1

Total # of neighbors = 197
Ave neighs/atom = 0.171453
Neighbor list builds = 12763
Dangerous builds = 2176
Setting up run at Sun Dec 25 08:06:05 2022

Memory usage per processor = 960.195 Mbytes
    Step    Atoms         KinEng            CPU 
 8436203     1149     0.10192688              0 
 8641964     1145    0.073297407      2052.9363 
Loop time of 2052.94 on 40 procs for 205761 steps with 1145 atoms, finish time Sun Dec 25 08:40:18 2022


Pair  time (%) = 0.463107 (0.0225583)
Neigh time (%) = 9.23181 (0.449688)
Comm  time (%) = 17.0411 (0.830084)
Outpt time (%) = 0.000268271 (1.30677e-05)
Other time (%) = 2026.2 (98.6977)

Nlocal:    28.625 ave 415 max 0 min
Histogram: 33 3 2 0 0 0 0 1 0 1
Nghost:    6.95 ave 85 max 0 min
Histogram: 34 2 0 0 1 1 0 0 1 1
Neighs:    4.9 ave 108 max 0 min
Histogram: 37 0 1 0 1 0 0 0 0 1

Total # of neighbors = 196
Ave neighs/atom = 0.171179
Neighbor list builds = 11186
Dangerous builds = 3
Setting up run at Sun Dec 25 08:40:18 2022

Memory usage per processor = 960.195 Mbytes
    Step    Atoms         KinEng            CPU 
 8641964     1145    0.073297407              0 
 8847725     1144    0.084293893      2056.1721 
Loop time of 2056.17 on 40 procs for 205761 steps with 1144 atoms, finish time Sun Dec 25 09:14:35 2022


Pair  time (%) = 0.463974 (0.022565)
Neigh time (%) = 8.09402 (0.393645)
Comm  time (%) = 17.3963 (0.846054)
Outpt time (%) = 0.000778247 (3.78493e-05)
Other time (%) = 2030.22 (98.7377)

Nlocal:    28.6 ave 412 max 0 min
Histogram: 34 2 2 0 0 0 0 1 0 1
Nghost:    6.825 ave 88 max 0 min
Histogram: 36 0 0 0 1 1 0 1 0 1
Neighs:    4.7 ave 109 max 0 min
Histogram: 36 2 0 1 0 0 0 0 0 1

Total # of neighbors = 188
Ave neighs/atom = 0.164336
Neighbor list builds = 9798
Dangerous builds = 0
Setting up run at Sun Dec 25 09:14:35 2022

Memory usage per processor = 960.195 Mbytes
    Step    Atoms         KinEng            CPU 
 8847725     1144    0.084293893              0 
 9053486     1134     0.19777977      2118.3207 
Loop time of 2118.32 on 40 procs for 205761 steps with 1134 atoms, finish time Sun Dec 25 09:49:53 2022


Pair  time (%) = 0.471643 (0.0222649)
Neigh time (%) = 12.1694 (0.574484)
Comm  time (%) = 26.2984 (1.24148)
Outpt time (%) = 0.000250554 (1.18279e-05)
Other time (%) = 2079.38 (98.1618)

Nlocal:    28.35 ave 403 max 0 min
Histogram: 33 3 2 0 0 0 0 1 0 1
Nghost:    7.225 ave 89 max 0 min
Histogram: 35 1 0 0 1 1 0 0 1 1
Neighs:    4.325 ave 91 max 0 min
Histogram: 35 3 0 1 0 0 0 0 0 1

Total # of neighbors = 173
Ave neighs/atom = 0.152557
Neighbor list builds = 14788
Dangerous builds = 380
Setting up run at Sun Dec 25 09:49:53 2022

Memory usage per processor = 960.195 Mbytes
    Step    Atoms         KinEng            CPU 
 9053486     1134     0.19777977              0 
 9259247     1120     0.11174485      2076.7356 
Loop time of 2076.74 on 40 procs for 205761 steps with 1120 atoms, finish time Sun Dec 25 10:24:30 2022


Pair  time (%) = 0.4677 (0.0225209)
Neigh time (%) = 10.483 (0.504783)
Comm  time (%) = 22.3824 (1.07777)
Outpt time (%) = 0.000503148 (2.42278e-05)
Other time (%) = 2043.4 (98.3949)

Nlocal:    28 ave 392 max 0 min
Histogram: 32 4 2 0 0 0 0 1 0 1
Nghost:    7.125 ave 80 max 0 min
Histogram: 33 3 0 0 1 1 0 0 0 2
Neighs:    4.275 ave 89 max 0 min
Histogram: 36 1 1 0 1 0 0 0 0 1

Total # of neighbors = 171
Ave neighs/atom = 0.152679
Neighbor list builds = 12736
Dangerous builds = 1398
Setting up run at Sun Dec 25 10:24:30 2022

Memory usage per processor = 960.195 Mbytes
    Step    Atoms         KinEng            CPU 
 9259247     1120     0.11174485              0 
 9465008     1114      0.1056751      2050.5857 
Loop time of 2050.59 on 40 procs for 205761 steps with 1114 atoms, finish time Sun Dec 25 10:58:40 2022


Pair  time (%) = 0.464034 (0.0226293)
Neigh time (%) = 8.26419 (0.403016)
Comm  time (%) = 17.5339 (0.85507)
Outpt time (%) = 0.000318012 (1.55083e-05)
Other time (%) = 2024.32 (98.7193)

Nlocal:    27.85 ave 387 max 0 min
Histogram: 33 3 2 0 0 0 0 1 0 1
Nghost:    6.85 ave 82 max 0 min
Histogram: 35 1 0 1 0 1 0 1 0 1
Neighs:    3.925 ave 72 max 0 min
Histogram: 35 1 2 0 1 0 0 0 0 1

Total # of neighbors = 157
Ave neighs/atom = 0.140934
Neighbor list builds = 9956
Dangerous builds = 163
Setting up run at Sun Dec 25 10:58:40 2022

Memory usage per processor = 960.195 Mbytes
    Step    Atoms         KinEng            CPU 
 9465008     1114      0.1056751              0 
 9670769     1109     0.19467141      2080.3648 
Loop time of 2080.36 on 40 procs for 205761 steps with 1109 atoms, finish time Sun Dec 25 11:33:21 2022


Pair  time (%) = 0.458129 (0.0220216)
Neigh time (%) = 9.24319 (0.444306)
Comm  time (%) = 22.3778 (1.07567)
Outpt time (%) = 0.000580351 (2.78966e-05)
Other time (%) = 2048.29 (98.458)

Nlocal:    27.725 ave 383 max 0 min
Histogram: 32 4 2 0 0 0 0 1 0 1
Nghost:    6.75 ave 84 max 0 min
Histogram: 35 1 0 1 0 1 0 0 1 1
Neighs:    3.725 ave 72 max 0 min
Histogram: 35 2 1 0 1 0 0 0 0 1

Total # of neighbors = 149
Ave neighs/atom = 0.134355
Neighbor list builds = 11140
Dangerous builds = 435
Setting up run at Sun Dec 25 11:33:21 2022

Memory usage per processor = 960.195 Mbytes
    Step    Atoms         KinEng            CPU 
 9670769     1109     0.19467141              0 
 9876530     1104      0.1476417      2064.9223 
Loop time of 2064.92 on 40 procs for 205761 steps with 1104 atoms, finish time Sun Dec 25 12:07:46 2022


Pair  time (%) = 0.459192 (0.0222377)
Neigh time (%) = 9.19808 (0.445444)
Comm  time (%) = 19.3984 (0.939424)
Outpt time (%) = 0.000264453 (1.28069e-05)
Other time (%) = 2035.87 (98.5929)

Nlocal:    27.6 ave 371 max 0 min
Histogram: 32 4 2 0 0 0 0 1 0 1
Nghost:    6.425 ave 77 max 0 min
Histogram: 35 1 0 1 0 1 0 0 0 2
Neighs:    3.85 ave 82 max 0 min
Histogram: 36 1 1 1 0 0 0 0 0 1

Total # of neighbors = 154
Ave neighs/atom = 0.139493
Neighbor list builds = 11102
Dangerous builds = 546
Setting up run at Sun Dec 25 12:07:46 2022

Memory usage per processor = 960.195 Mbytes
    Step    Atoms         KinEng            CPU 
 9876530     1104      0.1476417              0 
10082291     1094     0.13389305       2088.953 
Loop time of 2088.95 on 40 procs for 205761 steps with 1094 atoms, finish time Sun Dec 25 12:42:35 2022


Pair  time (%) = 0.455887 (0.0218237)
Neigh time (%) = 9.33773 (0.447005)
Comm  time (%) = 20.9182 (1.00137)
Outpt time (%) = 0.00417384 (0.000199805)
Other time (%) = 2058.24 (98.5296)

Nlocal:    27.35 ave 362 max 0 min
Histogram: 33 2 2 1 0 0 0 0 1 1
Nghost:    6.7 ave 73 max 0 min
Histogram: 34 2 0 0 1 0 1 0 1 1
Neighs:    3.75 ave 67 max 0 min
Histogram: 35 1 1 1 1 0 0 0 0 1

Total # of neighbors = 150
Ave neighs/atom = 0.137112
Neighbor list builds = 11256
Dangerous builds = 53
Setting up run at Sun Dec 25 12:42:35 2022

Memory usage per processor = 960.195 Mbytes
    Step    Atoms         KinEng            CPU 
10082291     1094     0.13389305              0 
10288052     1083     0.16906799      2050.5189 
Loop time of 2050.52 on 40 procs for 205761 steps with 1083 atoms, finish time Sun Dec 25 13:16:46 2022


Pair  time (%) = 0.461861 (0.0225241)
Neigh time (%) = 7.65511 (0.373325)
Comm  time (%) = 17.0836 (0.833136)
Outpt time (%) = 0.000319975 (1.56046e-05)
Other time (%) = 2025.32 (98.771)

Nlocal:    27.075 ave 348 max 0 min
Histogram: 34 1 1 2 0 0 0 0 1 1
Nghost:    6.225 ave 84 max 0 min
Histogram: 35 1 0 1 1 0 0 1 0 1
Neighs:    3.775 ave 69 max 0 min
Histogram: 36 0 0 2 1 0 0 0 0 1

Total # of neighbors = 151
Ave neighs/atom = 0.139428
Neighbor list builds = 9275
Dangerous builds = 1166
Setting up run at Sun Dec 25 13:16:46 2022

Memory usage per processor = 960.195 Mbytes
    Step    Atoms         KinEng            CPU 
10288052     1083     0.16906799              0 
10493813     1074     0.16698333      2035.8342 
Loop time of 2035.83 on 40 procs for 205761 steps with 1074 atoms, finish time Sun Dec 25 13:50:41 2022


Pair  time (%) = 0.456532 (0.0224248)
Neigh time (%) = 5.7508 (0.282479)
Comm  time (%) = 12.4994 (0.613968)
Outpt time (%) = 0.000558482 (2.74326e-05)
Other time (%) = 2017.13 (99.0811)

Nlocal:    26.85 ave 342 max 0 min
Histogram: 32 4 1 1 0 0 0 0 1 1
Nghost:    6.1 ave 76 max 0 min
Histogram: 34 2 0 1 0 1 0 1 0 1
Neighs:    3.525 ave 60 max 0 min
Histogram: 34 3 0 1 0 1 0 0 0 1

Total # of neighbors = 141
Ave neighs/atom = 0.131285
Neighbor list builds = 6947
Dangerous builds = 907
Setting up run at Sun Dec 25 13:50:41 2022

Memory usage per processor = 960.195 Mbytes
    Step    Atoms         KinEng            CPU 
10493813     1074     0.16698333              0 
10699574     1068     0.15606934           2054 
Loop time of 2054 on 40 procs for 205761 steps with 1068 atoms, finish time Sun Dec 25 14:24:56 2022


Pair  time (%) = 0.450429 (0.0219294)
Neigh time (%) = 8.20764 (0.399593)
Comm  time (%) = 15.8482 (0.77158)
Outpt time (%) = 0.000543196 (2.64458e-05)
Other time (%) = 2029.49 (98.8069)

Nlocal:    26.7 ave 344 max 0 min
Histogram: 33 3 1 1 0 0 0 0 1 1
Nghost:    5.825 ave 74 max 0 min
Histogram: 36 0 0 1 0 1 0 1 0 1
Neighs:    3.225 ave 48 max 0 min
Histogram: 35 1 1 0 0 1 1 0 0 1

Total # of neighbors = 129
Ave neighs/atom = 0.120787
Neighbor list builds = 9916
Dangerous builds = 1869
Setting up run at Sun Dec 25 14:24:56 2022

Memory usage per processor = 960.195 Mbytes
    Step    Atoms         KinEng            CPU 
10699574     1068     0.15606934              0 
10905335     1062      0.4070154      2078.7142 
Loop time of 2078.71 on 40 procs for 205761 steps with 1062 atoms, finish time Sun Dec 25 14:59:34 2022


Pair  time (%) = 0.449424 (0.0216203)
Neigh time (%) = 9.01569 (0.433715)
Comm  time (%) = 16.1078 (0.774892)
Outpt time (%) = 0.000307818 (1.48081e-05)
Other time (%) = 2053.14 (98.7698)

Nlocal:    26.55 ave 338 max 0 min
Histogram: 32 3 3 0 0 0 0 0 1 1
Nghost:    5.9 ave 65 max 0 min
Histogram: 34 2 0 0 0 2 0 0 0 2
Neighs:    2.825 ave 39 max 0 min
Histogram: 34 2 0 1 1 0 0 0 1 1

Total # of neighbors = 113
Ave neighs/atom = 0.106403
Neighbor list builds = 10834
Dangerous builds = 103
Setting up run at Sun Dec 25 14:59:34 2022

Memory usage per processor = 960.195 Mbytes
    Step    Atoms         KinEng            CPU 
10905335     1062      0.4070154              0 
11111096     1051     0.24482988      2165.4423 
Loop time of 2165.44 on 40 procs for 205761 steps with 1051 atoms, finish time Sun Dec 25 15:35:40 2022


Pair  time (%) = 0.448496 (0.0207115)
Neigh time (%) = 7.8227 (0.361252)
Comm  time (%) = 19.2703 (0.889902)
Outpt time (%) = 0.000586788 (2.70978e-05)
Other time (%) = 2137.9 (98.7281)

Nlocal:    26.275 ave 331 max 0 min
Histogram: 32 3 2 1 0 0 0 0 1 1
Nghost:    6.15 ave 68 max 0 min
Histogram: 34 2 0 0 0 2 0 0 0 2
Neighs:    2.675 ave 35 max 0 min
Histogram: 35 0 1 1 0 0 2 0 0 1

Total # of neighbors = 107
Ave neighs/atom = 0.101808
Neighbor list builds = 9412
Dangerous builds = 358
Setting up run at Sun Dec 25 15:35:40 2022

Memory usage per processor = 960.195 Mbytes
    Step    Atoms         KinEng            CPU 
11111096     1051     0.24482988              0 
11316857     1046     0.30212131       2185.392 
Loop time of 2185.39 on 40 procs for 205761 steps with 1046 atoms, finish time Sun Dec 25 16:12:05 2022


Pair  time (%) = 0.44918 (0.0205538)
Neigh time (%) = 13.0965 (0.599277)
Comm  time (%) = 28.2302 (1.29177)
Outpt time (%) = 0.00125421 (5.73905e-05)
Other time (%) = 2143.62 (98.0883)

Nlocal:    26.15 ave 332 max 0 min
Histogram: 33 3 1 1 0 0 0 0 1 1
Nghost:    6.4 ave 70 max 0 min
Histogram: 35 1 0 0 0 2 0 0 0 2
Neighs:    2.475 ave 28 max 0 min
Histogram: 33 2 1 0 0 0 1 2 0 1

Total # of neighbors = 99
Ave neighs/atom = 0.0946463
Neighbor list builds = 15769
Dangerous builds = 602
Setting up run at Sun Dec 25 16:12:05 2022

Memory usage per processor = 960.195 Mbytes
    Step    Atoms         KinEng            CPU 
11316857     1046     0.30212131              0 
11522618     1036     0.22785637       2156.901 
Loop time of 2156.9 on 40 procs for 205761 steps with 1036 atoms, finish time Sun Dec 25 16:48:02 2022


Pair  time (%) = 0.445127 (0.0206374)
Neigh time (%) = 9.60439 (0.445287)
Comm  time (%) = 22.0572 (1.02263)
Outpt time (%) = 0.00154093 (7.14418e-05)
Other time (%) = 2124.79 (98.5114)

Nlocal:    25.9 ave 322 max 0 min
Histogram: 32 3 2 1 0 0 0 0 1 1
Nghost:    5.925 ave 71 max 0 min
Histogram: 36 0 0 0 2 0 0 0 0 2
Neighs:    2.1 ave 30 max 0 min
Histogram: 34 2 0 1 0 1 1 0 0 1

Total # of neighbors = 84
Ave neighs/atom = 0.0810811
Neighbor list builds = 11534
Dangerous builds = 183
Setting up run at Sun Dec 25 16:48:02 2022

Memory usage per processor = 960.195 Mbytes
    Step    Atoms         KinEng            CPU 
11522618     1036     0.22785637              0 
11728379     1028      0.2851545      2396.7197 
Loop time of 2396.72 on 40 procs for 205761 steps with 1028 atoms, finish time Sun Dec 25 17:27:59 2022


Pair  time (%) = 0.452026 (0.0188602)
Neigh time (%) = 9.57182 (0.399372)
Comm  time (%) = 17.9571 (0.749237)
Outpt time (%) = 0.000291721 (1.21717e-05)
Other time (%) = 2368.74 (98.8325)

Nlocal:    25.7 ave 318 max 0 min
Histogram: 32 3 2 1 0 0 0 0 1 1
Nghost:    5.65 ave 67 max 0 min
Histogram: 36 0 0 0 1 1 0 0 0 2
Neighs:    2.025 ave 25 max 0 min
Histogram: 34 1 1 0 1 0 2 0 0 1

Total # of neighbors = 81
Ave neighs/atom = 0.0787938
Neighbor list builds = 11534
Dangerous builds = 1066
Setting up run at Sun Dec 25 17:27:59 2022

Memory usage per processor = 960.195 Mbytes
    Step    Atoms         KinEng            CPU 
11728379     1028      0.2851545              0 
11934140     1017     0.21624084       2124.188 
Loop time of 2124.19 on 40 procs for 205761 steps with 1017 atoms, finish time Sun Dec 25 18:03:23 2022


Pair  time (%) = 0.445665 (0.0209805)
Neigh time (%) = 7.83137 (0.368676)
Comm  time (%) = 17.8791 (0.841692)
Outpt time (%) = 0.000561565 (2.64367e-05)
Other time (%) = 2098.03 (98.7686)

Nlocal:    25.425 ave 311 max 0 min
Histogram: 32 4 0 2 0 0 0 0 1 1
Nghost:    5.425 ave 71 max 0 min
Histogram: 36 0 0 1 1 0 0 0 1 1
Neighs:    1.75 ave 21 max 0 min
Histogram: 36 0 0 0 0 0 1 1 1 1

Total # of neighbors = 70
Ave neighs/atom = 0.0688299
Neighbor list builds = 9425
Dangerous builds = 314
Setting up run at Sun Dec 25 18:03:23 2022

Memory usage per processor = 960.195 Mbytes
    Step    Atoms         KinEng            CPU 
11934140     1017     0.21624084              0 
12139901     1006     0.24172672      2082.8364 
Loop time of 2082.84 on 40 procs for 205761 steps with 1006 atoms, finish time Sun Dec 25 18:38:06 2022


Pair  time (%) = 0.445174 (0.0213734)
Neigh time (%) = 6.97277 (0.334773)
Comm  time (%) = 15.7237 (0.754916)
Outpt time (%) = 0.000310333 (1.48995e-05)
Other time (%) = 2059.69 (98.8889)

Nlocal:    25.15 ave 303 max 0 min
Histogram: 32 3 2 1 0 0 0 0 1 1
Nghost:    5.6 ave 70 max 0 min
Histogram: 36 0 0 0 1 1 0 1 0 1
Neighs:    1.925 ave 24 max 0 min
Histogram: 34 1 2 0 0 1 0 0 1 1

Total # of neighbors = 77
Ave neighs/atom = 0.0765408
Neighbor list builds = 8428
Dangerous builds = 945
Setting up run at Sun Dec 25 18:38:06 2022

Memory usage per processor = 960.195 Mbytes
    Step    Atoms         KinEng            CPU 
12139901     1006     0.24172672              0 
12345662      995     0.24537687      2052.5763 
Loop time of 2052.58 on 40 procs for 205761 steps with 995 atoms, finish time Sun Dec 25 19:12:19 2022


Pair  time (%) = 0.444889 (0.0216747)
Neigh time (%) = 7.98684 (0.389113)
Comm  time (%) = 17.4356 (0.84945)
Outpt time (%) = 0.0212292 (0.00103427)
Other time (%) = 2026.69 (98.7387)

Nlocal:    24.875 ave 297 max 0 min
Histogram: 32 2 2 2 0 0 0 0 1 1
Nghost:    5.625 ave 63 max 0 min
Histogram: 36 0 0 0 0 1 1 0 0 2
Neighs:    2 ave 21 max 0 min
Histogram: 34 1 0 0 1 1 1 0 0 2

Total # of neighbors = 80
Ave neighs/atom = 0.080402
Neighbor list builds = 9630
Dangerous builds = 977
Setting up run at Sun Dec 25 19:12:19 2022

Memory usage per processor = 960.195 Mbytes
    Step    Atoms         KinEng            CPU 
12345662      995     0.24537687              0 
12551423      989      0.2679652      2158.3545 
Loop time of 2158.35 on 40 procs for 205761 steps with 989 atoms, finish time Sun Dec 25 19:48:17 2022


Pair  time (%) = 0.447286 (0.0207235)
Neigh time (%) = 9.49324 (0.439837)
Comm  time (%) = 21.1496 (0.979893)
Outpt time (%) = 0.000305748 (1.41658e-05)
Other time (%) = 2127.26 (98.5595)

Nlocal:    24.725 ave 291 max 0 min
Histogram: 32 4 1 1 0 0 0 0 1 1
Nghost:    5.5 ave 63 max 0 min
Histogram: 36 0 0 0 0 1 1 0 0 2
Neighs:    1.825 ave 21 max 0 min
Histogram: 35 0 0 1 2 0 0 0 0 2

Total # of neighbors = 73
Ave neighs/atom = 0.0738119
Neighbor list builds = 11396
Dangerous builds = 12
Setting up run at Sun Dec 25 19:48:17 2022

Memory usage per processor = 960.195 Mbytes
    Step    Atoms         KinEng            CPU 
12551423      989      0.2679652              0 
12757184      982     0.24815668       2132.791 
Loop time of 2132.79 on 40 procs for 205761 steps with 982 atoms, finish time Sun Dec 25 20:23:50 2022


Pair  time (%) = 0.443671 (0.0208023)
Neigh time (%) = 11.198 (0.525039)
Comm  time (%) = 21.2155 (0.994729)
Outpt time (%) = 0.000501034 (2.34919e-05)
Other time (%) = 2099.93 (98.4594)

Nlocal:    24.55 ave 286 max 0 min
Histogram: 32 3 2 1 0 0 0 0 0 2
Nghost:    5.4 ave 59 max 0 min
Histogram: 35 1 0 0 0 0 2 0 1 1
Neighs:    1.55 ave 23 max 0 min
Histogram: 34 1 2 1 0 0 1 0 0 1

Total # of neighbors = 62
Ave neighs/atom = 0.0631365
Neighbor list builds = 13445
Dangerous builds = 761
Setting up run at Sun Dec 25 20:23:50 2022

Memory usage per processor = 960.195 Mbytes
    Step    Atoms         KinEng            CPU 
12757184      982     0.24815668              0 
12962945      979      5.7347896      2079.2419 
Loop time of 2079.24 on 40 procs for 205761 steps with 979 atoms, finish time Sun Dec 25 20:58:30 2022


Pair  time (%) = 0.439318 (0.0211288)
Neigh time (%) = 10.7243 (0.515779)
Comm  time (%) = 22.576 (1.08578)
Outpt time (%) = 0.000533358 (2.56516e-05)
Other time (%) = 2045.5 (98.3773)

Nlocal:    24.475 ave 287 max 0 min
Histogram: 33 1 3 1 0 0 0 0 1 1
Nghost:    5.4 ave 52 max 0 min
Histogram: 36 0 0 0 0 0 0 1 0 3
Neighs:    1.85 ave 23 max 0 min
Histogram: 34 1 0 3 0 0 0 0 0 2

Total # of neighbors = 74
Ave neighs/atom = 0.0755873
Neighbor list builds = 12866
Dangerous builds = 343
Setting up run at Sun Dec 25 20:58:30 2022

Memory usage per processor = 960.195 Mbytes
    Step    Atoms         KinEng            CPU 
12962945      979      5.7347896              0 
13168706      968     0.52885874      2083.0381 
Loop time of 2083.04 on 40 procs for 205761 steps with 968 atoms, finish time Sun Dec 25 21:33:13 2022


Pair  time (%) = 0.440785 (0.0211607)
Neigh time (%) = 11.0266 (0.529351)
Comm  time (%) = 24.4623 (1.17436)
Outpt time (%) = 0.000239227 (1.14845e-05)
Other time (%) = 2047.11 (98.2751)

Nlocal:    24.2 ave 281 max 0 min
Histogram: 32 3 2 1 0 0 0 0 0 2
Nghost:    5.225 ave 57 max 0 min
Histogram: 36 0 0 0 0 0 1 1 1 1
Neighs:    1.875 ave 26 max 0 min
Histogram: 34 2 1 0 1 0 0 0 1 1

Total # of neighbors = 75
Ave neighs/atom = 0.0774793
Neighbor list builds = 13304
Dangerous builds = 1976
Setting up run at Sun Dec 25 21:33:13 2022

Memory usage per processor = 960.195 Mbytes
    Step    Atoms         KinEng            CPU 
13168706      968     0.52885874              0 
13374467      956     0.34818322      2089.6177 
Loop time of 2089.62 on 40 procs for 205761 steps with 956 atoms, finish time Sun Dec 25 22:08:02 2022


Pair  time (%) = 0.443136 (0.0212065)
Neigh time (%) = 12.0276 (0.57559)
Comm  time (%) = 28.2721 (1.35298)
Outpt time (%) = 0.0134706 (0.000644642)
Other time (%) = 2048.86 (98.0496)

Nlocal:    23.9 ave 267 max 0 min
Histogram: 33 1 3 1 0 0 0 0 0 2
Nghost:    5.4 ave 58 max 0 min
Histogram: 36 0 0 0 0 1 0 1 1 1
Neighs:    1.75 ave 27 max 0 min
Histogram: 36 0 1 0 1 0 0 1 0 1

Total # of neighbors = 70
Ave neighs/atom = 0.0732218
Neighbor list builds = 14610
Dangerous builds = 4141
Setting up run at Sun Dec 25 22:08:03 2022

Memory usage per processor = 960.195 Mbytes
    Step    Atoms         KinEng            CPU 
13374467      956     0.34818322              0 
13580228      946      1.0565278      2056.5757 
Loop time of 2056.58 on 40 procs for 205761 steps with 946 atoms, finish time Sun Dec 25 22:42:19 2022


Pair  time (%) = 0.436249 (0.0212124)
Neigh time (%) = 8.42627 (0.409723)
Comm  time (%) = 19.9632 (0.970701)
Outpt time (%) = 0.004205 (0.000204466)
Other time (%) = 2027.75 (98.5982)

Nlocal:    23.65 ave 258 max 0 min
Histogram: 32 2 3 1 0 0 0 0 0 2
Nghost:    5.2 ave 57 max 0 min
Histogram: 36 0 0 0 1 0 0 1 0 2
Neighs:    1.475 ave 20 max 0 min
Histogram: 34 1 2 0 1 0 0 0 1 1

Total # of neighbors = 59
Ave neighs/atom = 0.0623679
Neighbor list builds = 10132
Dangerous builds = 173
Setting up run at Sun Dec 25 22:42:19 2022

Memory usage per processor = 960.195 Mbytes
    Step    Atoms         KinEng            CPU 
13580228      946      1.0565278              0 
13785989      940      0.3758435      2045.1655 
Loop time of 2045.17 on 40 procs for 205761 steps with 940 atoms, finish time Sun Dec 25 23:16:24 2022


Pair  time (%) = 0.438423 (0.021437)
Neigh time (%) = 7.10403 (0.347357)
Comm  time (%) = 15.759 (0.77055)
Outpt time (%) = 0.000629317 (3.0771e-05)
Other time (%) = 2021.86 (98.8606)

Nlocal:    23.5 ave 255 max 0 min
Histogram: 32 2 2 2 0 0 0 0 0 2
Nghost:    5.05 ave 56 max 0 min
Histogram: 36 0 0 0 0 1 1 0 0 2
Neighs:    1.5 ave 19 max 0 min
Histogram: 34 0 3 0 0 1 0 0 1 1

Total # of neighbors = 60
Ave neighs/atom = 0.0638298
Neighbor list builds = 8511
Dangerous builds = 24
Setting up run at Sun Dec 25 23:16:24 2022

Memory usage per processor = 960.195 Mbytes
    Step    Atoms         KinEng            CPU 
13785989      940      0.3758435              0 
13991750      927     0.43067512      2051.7372 
Loop time of 2051.74 on 40 procs for 205761 steps with 927 atoms, finish time Sun Dec 25 23:50:36 2022


Pair  time (%) = 0.444368 (0.0216581)
Neigh time (%) = 7.95318 (0.387631)
Comm  time (%) = 16.1664 (0.787935)
Outpt time (%) = 0.00013913 (6.78106e-06)
Other time (%) = 2027.17 (98.8028)

Nlocal:    23.175 ave 252 max 0 min
Histogram: 32 0 5 1 0 0 0 0 0 2
Nghost:    5.175 ave 56 max 0 min
Histogram: 36 0 0 0 0 1 0 1 0 2
Neighs:    1.525 ave 20 max 0 min
Histogram: 33 2 2 0 0 1 0 0 1 1

Total # of neighbors = 61
Ave neighs/atom = 0.0658037
Neighbor list builds = 9560
Dangerous builds = 826
Setting up run at Sun Dec 25 23:50:36 2022

Memory usage per processor = 960.195 Mbytes
    Step    Atoms         KinEng            CPU 
13991750      927     0.43067512              0 
14197511      924     0.36975267      2056.2308 
Loop time of 2056.23 on 40 procs for 205761 steps with 924 atoms, finish time Mon Dec 26 00:24:53 2022


Pair  time (%) = 0.44071 (0.0214329)
Neigh time (%) = 8.94531 (0.435034)
Comm  time (%) = 18.2549 (0.887785)
Outpt time (%) = 0.000579995 (2.82067e-05)
Other time (%) = 2028.59 (98.6557)

Nlocal:    23.1 ave 251 max 0 min
Histogram: 32 2 2 2 0 0 0 0 0 2
Nghost:    5.025 ave 54 max 0 min
Histogram: 36 0 0 0 0 1 1 0 0 2
Neighs:    1.725 ave 21 max 0 min
Histogram: 35 0 0 1 1 0 1 1 0 1

Total # of neighbors = 69
Ave neighs/atom = 0.0746753
Neighbor list builds = 10722
Dangerous builds = 493
Setting up run at Mon Dec 26 00:24:53 2022

Memory usage per processor = 960.195 Mbytes
    Step    Atoms         KinEng            CPU 
14197511      924     0.36975267              0 
14403272      907     0.32136233      2063.1805 
Loop time of 2063.18 on 40 procs for 205761 steps with 907 atoms, finish time Mon Dec 26 00:59:16 2022


Pair  time (%) = 0.441728 (0.0214101)
Neigh time (%) = 9.25087 (0.448379)
Comm  time (%) = 18.0783 (0.876237)
Outpt time (%) = 0.000297103 (1.44002e-05)
Other time (%) = 2035.41 (98.654)

Nlocal:    22.675 ave 245 max 0 min
Histogram: 32 2 1 3 0 0 0 0 0 2
Nghost:    4.9 ave 55 max 0 min
Histogram: 36 0 0 0 0 1 0 1 1 1
Neighs:    2.15 ave 31 max 0 min
Histogram: 35 0 2 1 0 0 1 0 0 1

Total # of neighbors = 86
Ave neighs/atom = 0.0948181
Neighbor list builds = 11110
Dangerous builds = 669
Setting up run at Mon Dec 26 00:59:16 2022

Memory usage per processor = 960.195 Mbytes
    Step    Atoms         KinEng            CPU 
14403272      907     0.32136233              0 
14609033      896     0.36006623      2059.5813 
Loop time of 2059.58 on 40 procs for 205761 steps with 896 atoms, finish time Mon Dec 26 01:33:35 2022


Pair  time (%) = 0.442713 (0.0214953)
Neigh time (%) = 9.35234 (0.454089)
Comm  time (%) = 19.4119 (0.942517)
Outpt time (%) = 0.000565449 (2.74546e-05)
Other time (%) = 2030.37 (98.5819)

Nlocal:    22.4 ave 240 max 0 min
Histogram: 32 1 4 1 0 0 0 0 0 2
Nghost:    4.85 ave 52 max 0 min
Histogram: 35 1 0 0 0 0 2 0 1 1
Neighs:    1.975 ave 24 max 0 min
Histogram: 33 1 2 0 1 1 0 1 0 1

Total # of neighbors = 79
Ave neighs/atom = 0.0881696
Neighbor list builds = 11240
Dangerous builds = 0
Setting up run at Mon Dec 26 01:33:35 2022

Memory usage per processor = 960.195 Mbytes
    Step    Atoms         KinEng            CPU 
14609033      896     0.36006623              0 
14814794      884      0.3749859      2085.8487 
Loop time of 2085.85 on 40 procs for 205761 steps with 884 atoms, finish time Mon Dec 26 02:08:21 2022


Pair  time (%) = 0.4399 (0.0210897)
Neigh time (%) = 12.6613 (0.607008)
Comm  time (%) = 25.779 (1.2359)
Outpt time (%) = 0.000235764 (1.1303e-05)
Other time (%) = 2046.97 (98.136)

Nlocal:    22.1 ave 243 max 0 min
Histogram: 32 3 2 1 0 0 0 0 0 2
Nghost:    4.725 ave 53 max 0 min
Histogram: 35 1 0 0 0 0 2 1 0 1
Neighs:    1.575 ave 22 max 0 min
Histogram: 35 1 0 1 1 0 0 1 0 1

Total # of neighbors = 63
Ave neighs/atom = 0.071267
Neighbor list builds = 15175
Dangerous builds = 369
Setting up run at Mon Dec 26 02:08:21 2022

Memory usage per processor = 960.195 Mbytes
    Step    Atoms         KinEng            CPU 
14814794      884      0.3749859              0 
15020555      872     0.29939287      2059.7528 
Loop time of 2059.75 on 40 procs for 205761 steps with 872 atoms, finish time Mon Dec 26 02:42:41 2022


Pair  time (%) = 0.435405 (0.0211387)
Neigh time (%) = 9.45006 (0.458796)
Comm  time (%) = 18.5438 (0.90029)
Outpt time (%) = 0.000506701 (2.46001e-05)
Other time (%) = 2031.32 (98.6198)

Nlocal:    21.8 ave 240 max 0 min
Histogram: 32 2 2 2 0 0 0 0 0 2
Nghost:    4.7 ave 49 max 0 min
Histogram: 35 1 0 0 0 0 1 1 1 1
Neighs:    1.9 ave 27 max 0 min
Histogram: 35 0 2 0 0 1 1 0 0 1

Total # of neighbors = 76
Ave neighs/atom = 0.087156
Neighbor list builds = 11319
Dangerous builds = 436
Setting up run at Mon Dec 26 02:42:41 2022

Memory usage per processor = 960.195 Mbytes
    Step    Atoms         KinEng            CPU 
15020555      872     0.29939287              0 
15226316      864     0.25459473      2062.2559 
Loop time of 2062.26 on 40 procs for 205761 steps with 864 atoms, finish time Mon Dec 26 03:17:04 2022


Pair  time (%) = 0.441321 (0.0213999)
Neigh time (%) = 9.29569 (0.450753)
Comm  time (%) = 18.6573 (0.904702)
Outpt time (%) = 0.000224084 (1.0866e-05)
Other time (%) = 2033.86 (98.6231)

Nlocal:    21.6 ave 237 max 0 min
Histogram: 32 1 3 2 0 0 0 0 0 2
Nghost:    4.875 ave 55 max 0 min
Histogram: 34 2 0 0 0 1 1 0 1 1
Neighs:    1.625 ave 22 max 0 min
Histogram: 34 1 0 3 0 0 0 1 0 1

Total # of neighbors = 65
Ave neighs/atom = 0.0752315
Neighbor list builds = 11196
Dangerous builds = 1704
Setting up run at Mon Dec 26 03:17:04 2022

Memory usage per processor = 960.195 Mbytes
    Step    Atoms         KinEng            CPU 
15226316      864     0.25459473              0 
15432077      858     0.25719532      2041.7073 
Loop time of 2041.71 on 40 procs for 205761 steps with 858 atoms, finish time Mon Dec 26 03:51:05 2022


Pair  time (%) = 0.434537 (0.021283)
Neigh time (%) = 7.50309 (0.367491)
Comm  time (%) = 14.1759 (0.694316)
Outpt time (%) = 0.000545434 (2.67146e-05)
Other time (%) = 2019.59 (98.9169)

Nlocal:    21.45 ave 235 max 0 min
Histogram: 32 1 4 1 0 0 0 0 0 2
Nghost:    4.65 ave 56 max 0 min
Histogram: 34 2 0 0 0 2 0 1 0 1
Neighs:    1.275 ave 16 max 0 min
Histogram: 34 2 0 1 0 0 1 0 1 1

Total # of neighbors = 51
Ave neighs/atom = 0.0594406
Neighbor list builds = 8995
Dangerous builds = 625
Setting up run at Mon Dec 26 03:51:05 2022

Memory usage per processor = 960.195 Mbytes
    Step    Atoms         KinEng            CPU 
15432077      858     0.25719532              0 
15637838      854      0.2984525      2066.4178 
Loop time of 2066.42 on 40 procs for 205761 steps with 854 atoms, finish time Mon Dec 26 04:25:32 2022


Pair  time (%) = 0.439794 (0.0212829)
Neigh time (%) = 9.55088 (0.462195)
Comm  time (%) = 18.5989 (0.900054)
Outpt time (%) = 0.000286504 (1.38648e-05)
Other time (%) = 2037.83 (98.6165)

Nlocal:    21.35 ave 235 max 0 min
Histogram: 32 1 3 2 0 0 0 0 1 1
Nghost:    4.7 ave 61 max 0 min
Histogram: 36 0 0 0 1 1 1 0 0 1
Neighs:    1.425 ave 18 max 0 min
Histogram: 33 1 2 2 0 0 0 1 0 1

Total # of neighbors = 57
Ave neighs/atom = 0.0667447
Neighbor list builds = 11475
Dangerous builds = 1112
Setting up run at Mon Dec 26 04:25:32 2022

Memory usage per processor = 960.195 Mbytes
    Step    Atoms         KinEng            CPU 
15637838      854      0.2984525              0 
15843599      841     0.28238028      2072.0063 
Loop time of 2072.01 on 40 procs for 205761 steps with 841 atoms, finish time Mon Dec 26 05:00:04 2022


Pair  time (%) = 0.441353 (0.0213008)
Neigh time (%) = 10.7948 (0.520984)
Comm  time (%) = 19.003 (0.917132)
Outpt time (%) = 0.000456524 (2.20329e-05)
Other time (%) = 2041.77 (98.5406)

Nlocal:    21.025 ave 236 max 0 min
Histogram: 32 1 4 1 0 0 0 0 1 1
Nghost:    4.525 ave 53 max 0 min
Histogram: 36 0 0 0 0 1 1 1 0 1
Neighs:    1.45 ave 23 max 0 min
Histogram: 35 1 1 1 0 0 1 0 0 1

Total # of neighbors = 58
Ave neighs/atom = 0.0689655
Neighbor list builds = 12994
Dangerous builds = 2468
Setting up run at Mon Dec 26 05:00:04 2022

Memory usage per processor = 960.195 Mbytes
    Step    Atoms         KinEng            CPU 
15843599      841     0.28238028              0 
16049360      835      0.2008143      2047.2407 
Loop time of 2047.24 on 40 procs for 205761 steps with 835 atoms, finish time Mon Dec 26 05:34:11 2022


Pair  time (%) = 0.434797 (0.0212382)
Neigh time (%) = 7.89703 (0.38574)
Comm  time (%) = 13.707 (0.669533)
Outpt time (%) = 0.000247543 (1.20915e-05)
Other time (%) = 2025.2 (98.9235)

Nlocal:    20.875 ave 238 max 0 min
Histogram: 32 1 3 2 0 0 0 0 1 1
Nghost:    4.475 ave 54 max 0 min
Histogram: 36 0 0 0 1 0 1 0 1 1
Neighs:    1.275 ave 17 max 0 min
Histogram: 34 1 1 0 2 0 1 0 0 1

Total # of neighbors = 51
Ave neighs/atom = 0.0610778
Neighbor list builds = 9476
Dangerous builds = 94
Setting up run at Mon Dec 26 05:34:11 2022

Memory usage per processor = 960.195 Mbytes
    Step    Atoms         KinEng            CPU 
16049360      835      0.2008143              0 
16255121      819     0.27046214      2052.3052 
Loop time of 2052.31 on 40 procs for 205761 steps with 819 atoms, finish time Mon Dec 26 06:08:24 2022


Pair  time (%) = 0.435055 (0.0211984)
Neigh time (%) = 8.33417 (0.406088)
Comm  time (%) = 16.1137 (0.785152)
Outpt time (%) = 0.000518999 (2.52886e-05)
Other time (%) = 2027.42 (98.7875)

Nlocal:    20.475 ave 238 max 0 min
Histogram: 32 1 5 0 0 0 0 0 1 1
Nghost:    4.575 ave 50 max 0 min
Histogram: 34 2 0 0 0 1 0 1 1 1
Neighs:    1.225 ave 17 max 0 min
Histogram: 33 3 0 0 3 0 0 0 0 1

Total # of neighbors = 49
Ave neighs/atom = 0.0598291
Neighbor list builds = 10002
Dangerous builds = 514
Setting up run at Mon Dec 26 06:08:24 2022

Memory usage per processor = 960.195 Mbytes
    Step    Atoms         KinEng            CPU 
16255121      819     0.27046214              0 
16460882      814     0.30920424      2052.0406 
Loop time of 2052.04 on 40 procs for 205761 steps with 814 atoms, finish time Mon Dec 26 06:42:36 2022


Pair  time (%) = 0.434248 (0.0211618)
Neigh time (%) = 8.26659 (0.402847)
Comm  time (%) = 17.7437 (0.864685)
Outpt time (%) = 0.0128035 (0.000623942)
Other time (%) = 2025.58 (98.7107)

Nlocal:    20.35 ave 234 max 0 min
Histogram: 32 2 3 1 0 0 0 0 1 1
Nghost:    4.625 ave 51 max 0 min
Histogram: 36 0 0 0 0 1 0 1 1 1
Neighs:    1.625 ave 20 max 0 min
Histogram: 33 2 0 1 0 2 1 0 0 1

Total # of neighbors = 65
Ave neighs/atom = 0.0798526
Neighbor list builds = 9927
Dangerous builds = 323
Setting up run at Mon Dec 26 06:42:36 2022

Memory usage per processor = 960.195 Mbytes
    Step    Atoms         KinEng            CPU 
16460882      814     0.30920424              0 
16666643      804     0.27802383      2054.2096 
Loop time of 2054.24 on 40 procs for 205761 steps with 804 atoms, finish time Mon Dec 26 07:16:50 2022


Pair  time (%) = 0.429069 (0.020887)
Neigh time (%) = 8.08077 (0.39337)
Comm  time (%) = 18.8398 (0.917119)
Outpt time (%) = 0.0002763 (1.34502e-05)
Other time (%) = 2026.89 (98.6686)

Nlocal:    20.1 ave 236 max 0 min
Histogram: 32 2 2 2 0 0 0 0 1 1
Nghost:    4.725 ave 53 max 0 min
Histogram: 36 0 0 0 0 1 1 0 0 2
Neighs:    1.375 ave 16 max 0 min
Histogram: 34 0 1 0 2 1 1 0 0 1

Total # of neighbors = 55
Ave neighs/atom = 0.068408
Neighbor list builds = 9747
Dangerous builds = 1290
Setting up run at Mon Dec 26 07:16:50 2022

Memory usage per processor = 960.195 Mbytes
    Step    Atoms         KinEng            CPU 
16666643      804     0.27802383              0 
16872404      794     0.31772532      2051.0563 
Loop time of 2051.06 on 40 procs for 205761 steps with 794 atoms, finish time Mon Dec 26 07:51:01 2022


Pair  time (%) = 0.428328 (0.0208833)
Neigh time (%) = 8.77864 (0.428006)
Comm  time (%) = 18.6227 (0.907959)
Outpt time (%) = 0.000521612 (2.54314e-05)
Other time (%) = 2023.23 (98.6431)

Nlocal:    19.85 ave 240 max 0 min
Histogram: 32 3 2 1 0 0 0 1 0 1
Nghost:    4.625 ave 52 max 0 min
Histogram: 35 1 0 0 0 2 0 0 0 2
Neighs:    1.275 ave 16 max 0 min
Histogram: 34 0 1 2 1 0 1 0 0 1

Total # of neighbors = 51
Ave neighs/atom = 0.0642317
Neighbor list builds = 10607
Dangerous builds = 1297
Setting up run at Mon Dec 26 07:51:01 2022

Memory usage per processor = 960.195 Mbytes
    Step    Atoms         KinEng            CPU 
16872404      794     0.31772532              0 
17078165      784     0.25516955      2069.4517 
Loop time of 2069.45 on 40 procs for 205761 steps with 784 atoms, finish time Mon Dec 26 08:25:31 2022


Pair  time (%) = 0.430474 (0.0208013)
Neigh time (%) = 9.61584 (0.464656)
Comm  time (%) = 20.1422 (0.97331)
Outpt time (%) = 0.000331697 (1.60282e-05)
Other time (%) = 2039.26 (98.5412)

Nlocal:    19.6 ave 235 max 0 min
Histogram: 32 2 3 1 0 0 0 1 0 1
Nghost:    4.7 ave 55 max 0 min
Histogram: 36 0 0 0 1 0 1 0 0 2
Neighs:    1.325 ave 19 max 0 min
Histogram: 33 2 1 2 0 1 0 0 0 1

Total # of neighbors = 53
Ave neighs/atom = 0.067602
Neighbor list builds = 11584
Dangerous builds = 1163
Setting up run at Mon Dec 26 08:25:31 2022

Memory usage per processor = 960.195 Mbytes
    Step    Atoms         KinEng            CPU 
17078165      784     0.25516955              0 
17283926      778     0.33581235      2039.1161 
Loop time of 2039.12 on 40 procs for 205761 steps with 778 atoms, finish time Mon Dec 26 08:59:30 2022


Pair  time (%) = 0.425826 (0.0208829)
Neigh time (%) = 7.3363 (0.359778)
Comm  time (%) = 15.6914 (0.769519)
Outpt time (%) = 0.00420277 (0.000206107)
Other time (%) = 2015.66 (98.8496)

Nlocal:    19.45 ave 231 max 0 min
Histogram: 32 2 3 1 0 0 0 1 0 1
Nghost:    4.6 ave 50 max 0 min
Histogram: 34 2 0 0 1 0 1 0 0 2
Neighs:    1.35 ave 23 max 0 min
Histogram: 34 3 0 1 0 1 0 0 0 1

Total # of neighbors = 54
Ave neighs/atom = 0.0694087
Neighbor list builds = 8827
Dangerous builds = 517
Setting up run at Mon Dec 26 08:59:30 2022

Memory usage per processor = 960.195 Mbytes
    Step    Atoms         KinEng            CPU 
17283926      778     0.33581235              0 
17489687      772     0.20905949      2058.5646 
Loop time of 2058.57 on 40 procs for 205761 steps with 772 atoms, finish time Mon Dec 26 09:33:49 2022


Pair  time (%) = 0.424566 (0.0206244)
Neigh time (%) = 8.97743 (0.436101)
Comm  time (%) = 20.4929 (0.995493)
Outpt time (%) = 0.000343958 (1.67086e-05)
Other time (%) = 2028.67 (98.5478)

Nlocal:    19.3 ave 229 max 0 min
Histogram: 32 2 3 1 0 0 0 1 0 1
Nghost:    4.525 ave 48 max 0 min
Histogram: 35 1 0 0 1 0 0 1 1 1
Neighs:    1.35 ave 15 max 0 min
Histogram: 34 0 1 0 0 3 1 0 0 1

Total # of neighbors = 54
Ave neighs/atom = 0.0699482
Neighbor list builds = 10790
Dangerous builds = 1
Setting up run at Mon Dec 26 09:33:49 2022

Memory usage per processor = 960.195 Mbytes
    Step    Atoms         KinEng            CPU 
17489687      772     0.20905949              0 
17695448      766     0.20457617      2068.0095 
Loop time of 2068.01 on 40 procs for 205761 steps with 766 atoms, finish time Mon Dec 26 10:08:17 2022


Pair  time (%) = 0.427775 (0.0206853)
Neigh time (%) = 10.2829 (0.497237)
Comm  time (%) = 21.641 (1.04646)
Outpt time (%) = 0.000507849 (2.45574e-05)
Other time (%) = 2035.66 (98.4356)

Nlocal:    19.15 ave 231 max 0 min
Histogram: 32 2 2 2 0 0 0 1 0 1
Nghost:    3.95 ave 44 max 0 min
Histogram: 36 0 0 0 0 1 1 0 0 2
Neighs:    1.275 ave 15 max 0 min
Histogram: 34 0 2 0 1 0 0 1 1 1

Total # of neighbors = 51
Ave neighs/atom = 0.0665796
Neighbor list builds = 12473
Dangerous builds = 3997
Setting up run at Mon Dec 26 10:08:17 2022

Memory usage per processor = 960.195 Mbytes
    Step    Atoms         KinEng            CPU 
17695448      766     0.20457617              0 
17901209      762     0.51419098      2035.6691 
Loop time of 2035.67 on 40 procs for 205761 steps with 762 atoms, finish time Mon Dec 26 10:42:13 2022


Pair  time (%) = 0.421243 (0.020693)
Neigh time (%) = 6.98125 (0.342945)
Comm  time (%) = 14.8547 (0.729717)
Outpt time (%) = 0.000318968 (1.56689e-05)
Other time (%) = 2013.42 (98.9066)

Nlocal:    19.05 ave 232 max 0 min
Histogram: 32 2 3 1 0 0 0 1 0 1
Nghost:    4.125 ave 46 max 0 min
Histogram: 34 2 0 0 0 2 0 0 1 1
Neighs:    1.125 ave 19 max 0 min
Histogram: 33 2 3 1 0 0 0 0 0 1

Total # of neighbors = 45
Ave neighs/atom = 0.0590551
Neighbor list builds = 8382
Dangerous builds = 372
Setting up run at Mon Dec 26 10:42:13 2022

Memory usage per processor = 960.195 Mbytes
    Step    Atoms         KinEng            CPU 
17901209      762     0.51419098              0 
18106970      752     0.19074739      2030.5173 
Loop time of 2030.52 on 40 procs for 205761 steps with 752 atoms, finish time Mon Dec 26 11:16:03 2022


Pair  time (%) = 0.41499 (0.0204377)
Neigh time (%) = 6.54161 (0.322165)
Comm  time (%) = 13.7651 (0.677913)
Outpt time (%) = 0.000543013 (2.67426e-05)
Other time (%) = 2009.8 (98.9795)

Nlocal:    18.8 ave 229 max 0 min
Histogram: 33 1 2 2 0 0 0 1 0 1
Nghost:    4.25 ave 42 max 0 min
Histogram: 35 1 0 0 0 0 1 1 0 2
Neighs:    1.05 ave 16 max 0 min
Histogram: 35 0 0 3 1 0 0 0 0 1

Total # of neighbors = 42
Ave neighs/atom = 0.0558511
Neighbor list builds = 7873
Dangerous builds = 75
Setting up run at Mon Dec 26 11:16:03 2022

Memory usage per processor = 960.195 Mbytes
    Step    Atoms         KinEng            CPU 
18106970      752     0.19074739              0 
18312731      741     0.16751521      2052.2071 
Loop time of 2052.21 on 40 procs for 205761 steps with 741 atoms, finish time Mon Dec 26 11:50:15 2022


Pair  time (%) = 0.41762 (0.0203498)
Neigh time (%) = 7.91369 (0.385619)
Comm  time (%) = 16.1888 (0.78885)
Outpt time (%) = 0.000327856 (1.59758e-05)
Other time (%) = 2027.69 (98.8052)

Nlocal:    18.525 ave 232 max 0 min
Histogram: 32 3 2 1 0 0 1 0 0 1
Nghost:    4.05 ave 42 max 0 min
Histogram: 35 1 0 0 0 1 0 1 1 1
Neighs:    1.225 ave 16 max 0 min
Histogram: 33 2 0 3 0 0 1 0 0 1

Total # of neighbors = 49
Ave neighs/atom = 0.0661269
Neighbor list builds = 9544
Dangerous builds = 947
Setting up run at Mon Dec 26 11:50:16 2022

Memory usage per processor = 960.195 Mbytes
    Step    Atoms         KinEng            CPU 
18312731      741     0.16751521              0 
18518492      732     0.10029731      2039.4031 
Loop time of 2039.4 on 40 procs for 205761 steps with 732 atoms, finish time Mon Dec 26 12:24:15 2022


Pair  time (%) = 0.426737 (0.0209246)
Neigh time (%) = 7.24024 (0.355018)
Comm  time (%) = 13.8463 (0.678938)
Outpt time (%) = 0.00057207 (2.80509e-05)
Other time (%) = 2017.89 (98.9451)

Nlocal:    18.3 ave 233 max 0 min
Histogram: 32 3 1 2 0 0 1 0 0 1
Nghost:    4.025 ave 41 max 0 min
Histogram: 34 2 0 0 0 1 1 0 0 2
Neighs:    1.325 ave 20 max 0 min
Histogram: 33 2 2 1 0 0 0 1 0 1

Total # of neighbors = 53
Ave neighs/atom = 0.0724044
Neighbor list builds = 8778
Dangerous builds = 1483
Setting up run at Mon Dec 26 12:24:15 2022

Memory usage per processor = 960.195 Mbytes
    Step    Atoms         KinEng            CPU 
18518492      732     0.10029731              0 
18724253      730     0.11778967      2015.3267 
Loop time of 2015.33 on 40 procs for 205761 steps with 730 atoms, finish time Mon Dec 26 12:57:50 2022


Pair  time (%) = 0.416362 (0.0206598)
Neigh time (%) = 3.91908 (0.194464)
Comm  time (%) = 7.51244 (0.372765)
[...]
Neigh time (%) = 10.4332 (0.503583)
Comm  time (%) = 17.8772 (0.862886)
Outpt time (%) = 0.000524186 (2.53011e-05)
Other time (%) = 2043.08 (98.614)

Nlocal:    12.05 ave 136 max 0 min
Histogram: 32 2 2 2 0 0 0 0 1 1
Nghost:    1.95 ave 23 max 0 min
Histogram: 32 4 0 0 2 1 0 0 0 1
Neighs:    0.225 ave 3 max 0 min
Histogram: 35 0 0 2 0 0 2 0 0 1

Total # of neighbors = 9
Ave neighs/atom = 0.0186722
Neighbor list builds = 12514
Dangerous builds = 154
Setting up run at Tue Dec 27 21:53:59 2022

Memory usage per processor = 960.195 Mbytes
    Step    Atoms         KinEng            CPU 
30452660      482     0.25138246              0 
30658421      479     0.22120702       2052.978 
Loop time of 2052.98 on 40 procs for 205761 steps with 479 atoms, finish time Tue Dec 27 22:28:12 2022


Pair  time (%) = 0.399723 (0.0194704)
Neigh time (%) = 8.76645 (0.427012)
Comm  time (%) = 16.2343 (0.790767)
Outpt time (%) = 0.000550723 (2.68256e-05)
Other time (%) = 2027.58 (98.7627)

Nlocal:    11.975 ave 138 max 0 min
Histogram: 32 2 2 2 0 0 0 0 1 1
Nghost:    1.85 ave 17 max 0 min
Histogram: 28 8 0 0 1 0 0 0 2 1
Neighs:    0.15 ave 2 max 0 min
Histogram: 35 0 0 0 0 4 0 0 0 1

Total # of neighbors = 6
Ave neighs/atom = 0.0125261
Neighbor list builds = 10496
Dangerous builds = 5
Setting up run at Tue Dec 27 22:28:12 2022

Memory usage per processor = 960.195 Mbytes
    Step    Atoms         KinEng            CPU 
30658421      479     0.22120702              0 
30864182      478     0.28469927      2048.8983 
Loop time of 2048.9 on 40 procs for 205761 steps with 478 atoms, finish time Tue Dec 27 23:02:21 2022


Pair  time (%) = 0.390428 (0.0190555)
Neigh time (%) = 7.18317 (0.350587)
Comm  time (%) = 11.7546 (0.573702)
Outpt time (%) = 0.00059174 (2.88809e-05)
Other time (%) = 2029.57 (99.0566)

Nlocal:    11.95 ave 136 max 0 min
Histogram: 32 2 2 2 0 0 0 0 1 1
Nghost:    1.675 ave 21 max 0 min
Histogram: 36 0 1 0 1 0 0 0 1 1
Neighs:    0.3 ave 5 max 0 min
Histogram: 34 0 3 0 2 0 0 0 0 1

Total # of neighbors = 12
Ave neighs/atom = 0.0251046
Neighbor list builds = 8585
Dangerous builds = 3
Setting up run at Tue Dec 27 23:02:21 2022

Memory usage per processor = 960.195 Mbytes
    Step    Atoms         KinEng            CPU 
30864182      478     0.28469927              0 
31069943      473     0.27640981      2062.6509 
Loop time of 2062.65 on 40 procs for 205761 steps with 473 atoms, finish time Tue Dec 27 23:36:43 2022


Pair  time (%) = 0.401143 (0.0194479)
Neigh time (%) = 10.0595 (0.4877)
Comm  time (%) = 14.5391 (0.704872)
Outpt time (%) = 0.000300429 (1.45652e-05)
Other time (%) = 2037.65 (98.788)

Nlocal:    11.825 ave 138 max 0 min
Histogram: 32 2 4 0 0 0 0 0 1 1
Nghost:    1.725 ave 18 max 0 min
Histogram: 31 5 0 1 0 0 1 0 0 2
Neighs:    0.3 ave 4 max 0 min
Histogram: 35 0 2 0 0 1 0 0 0 2

Total # of neighbors = 12
Ave neighs/atom = 0.02537
Neighbor list builds = 12059
Dangerous builds = 3
Setting up run at Tue Dec 27 23:36:43 2022

Memory usage per processor = 960.195 Mbytes
    Step    Atoms         KinEng            CPU 
31069943      473     0.27640981              0 
31275704      469     0.40296428       2054.876 
Loop time of 2054.88 on 40 procs for 205761 steps with 469 atoms, finish time Wed Dec 28 00:10:58 2022


Pair  time (%) = 0.394295 (0.0191883)
Neigh time (%) = 8.22629 (0.40033)
Comm  time (%) = 14.4423 (0.702831)
Outpt time (%) = 0.000540326 (2.62948e-05)
Other time (%) = 2031.81 (98.8776)

Nlocal:    11.725 ave 133 max 0 min
Histogram: 32 1 5 0 0 0 0 0 1 1
Nghost:    1.8 ave 19 max 0 min
Histogram: 32 3 1 1 0 0 0 1 1 1
Neighs:    0.425 ave 4 max 0 min
Histogram: 33 0 1 0 0 3 0 2 0 1

Total # of neighbors = 17
Ave neighs/atom = 0.0362473
Neighbor list builds = 9820
Dangerous builds = 5
Setting up run at Wed Dec 28 00:10:58 2022

Memory usage per processor = 960.195 Mbytes
    Step    Atoms         KinEng            CPU 
31275704      469     0.40296428              0 
31481465      467     0.17704281      2042.6663 
Loop time of 2042.67 on 40 procs for 205761 steps with 467 atoms, finish time Wed Dec 28 00:45:01 2022


Pair  time (%) = 0.396475 (0.0194097)
Neigh time (%) = 7.34117 (0.359391)
Comm  time (%) = 11.2798 (0.552207)
Outpt time (%) = 0.000371054 (1.81652e-05)
Other time (%) = 2023.65 (99.069)

Nlocal:    11.675 ave 135 max 0 min
Histogram: 32 1 5 0 0 0 0 0 1 1
Nghost:    1.55 ave 19 max 0 min
Histogram: 34 2 1 0 0 1 0 0 1 1
Neighs:    0.225 ave 3 max 0 min
Histogram: 34 0 0 4 0 0 1 0 0 1

Total # of neighbors = 9
Ave neighs/atom = 0.0192719
Neighbor list builds = 8767
Dangerous builds = 1
Setting up run at Wed Dec 28 00:45:01 2022

Memory usage per processor = 960.195 Mbytes
    Step    Atoms         KinEng            CPU 
31481465      467     0.17704281              0 
31687226      463     0.28953392      2048.1912 
Loop time of 2048.19 on 40 procs for 205761 steps with 463 atoms, finish time Wed Dec 28 01:19:09 2022


Pair  time (%) = 0.397323 (0.0193987)
Neigh time (%) = 8.10258 (0.395597)
Comm  time (%) = 11.0816 (0.541042)
Outpt time (%) = 0.000538975 (2.63147e-05)
Other time (%) = 2028.61 (99.0439)

Nlocal:    11.575 ave 132 max 0 min
Histogram: 32 1 5 0 0 0 0 0 1 1
Nghost:    1.7 ave 15 max 0 min
Histogram: 29 5 2 0 1 0 0 0 1 2
Neighs:    0.15 ave 2 max 0 min
Histogram: 36 0 0 0 0 2 0 0 0 2

Total # of neighbors = 6
Ave neighs/atom = 0.012959
Neighbor list builds = 9670
Dangerous builds = 0
Setting up run at Wed Dec 28 01:19:09 2022

Memory usage per processor = 960.195 Mbytes
    Step    Atoms         KinEng            CPU 
31687226      463     0.28953392              0 
31892987      459      4.2935941       2047.358 
Loop time of 2047.36 on 40 procs for 205761 steps with 459 atoms, finish time Wed Dec 28 01:53:17 2022


Pair  time (%) = 0.396939 (0.0193879)
Neigh time (%) = 7.09409 (0.3465)
Comm  time (%) = 9.98418 (0.487662)
Outpt time (%) = 0.00384763 (0.000187932)
Other time (%) = 2029.88 (99.1463)

Nlocal:    11.475 ave 132 max 0 min
Histogram: 32 1 4 1 0 0 0 0 1 1
Nghost:    1.8 ave 17 max 0 min
Histogram: 30 4 1 2 0 0 0 1 1 1
Neighs:    0.2 ave 3 max 0 min
Histogram: 35 0 0 3 0 0 1 0 0 1

Total # of neighbors = 8
Ave neighs/atom = 0.0174292
Neighbor list builds = 8467
Dangerous builds = 0
Setting up run at Wed Dec 28 01:53:17 2022

Memory usage per processor = 960.195 Mbytes
    Step    Atoms         KinEng            CPU 
31892987      459      4.2935941              0 
32098748      456      0.1382317      2034.0403 
Loop time of 2034.04 on 40 procs for 205761 steps with 456 atoms, finish time Wed Dec 28 02:27:11 2022


Pair  time (%) = 0.393767 (0.0193588)
Neigh time (%) = 6.6296 (0.325933)
Comm  time (%) = 10.26 (0.504415)
Outpt time (%) = 0.000490113 (2.40956e-05)
Other time (%) = 2016.76 (99.1503)

Nlocal:    11.4 ave 129 max 0 min
Histogram: 32 1 4 1 0 0 0 0 1 1
Nghost:    1.55 ave 16 max 0 min
Histogram: 31 4 1 0 0 1 2 0 0 1
Neighs:    0.2 ave 3 max 0 min
Histogram: 36 0 0 1 0 0 2 0 0 1

Total # of neighbors = 8
Ave neighs/atom = 0.0175439
Neighbor list builds = 7926
Dangerous builds = 170
Setting up run at Wed Dec 28 02:27:11 2022

Memory usage per processor = 960.195 Mbytes
    Step    Atoms         KinEng            CPU 
32098748      456      0.1382317              0 
32304509      453     0.14876331      2027.8809 
Loop time of 2027.88 on 40 procs for 205761 steps with 453 atoms, finish time Wed Dec 28 03:00:59 2022


Pair  time (%) = 0.390378 (0.0192506)
Neigh time (%) = 5.93426 (0.292633)
Comm  time (%) = 9.14333 (0.450881)
Outpt time (%) = 0.00021239 (1.04735e-05)
Other time (%) = 2012.41 (99.2372)

Nlocal:    11.325 ave 128 max 0 min
Histogram: 32 1 4 1 0 0 0 0 1 1
Nghost:    1.925 ave 17 max 0 min
Histogram: 28 8 0 0 0 1 0 0 1 2
Neighs:    0.4 ave 7 max 0 min
Histogram: 35 1 2 0 0 1 0 0 0 1

Total # of neighbors = 16
Ave neighs/atom = 0.0353201
Neighbor list builds = 7097
Dangerous builds = 339
Setting up run at Wed Dec 28 03:00:59 2022

Memory usage per processor = 960.195 Mbytes
    Step    Atoms         KinEng            CPU 
32304509      453     0.14876331              0 
32510270      449     0.17610998      2031.4544 
Loop time of 2031.45 on 40 procs for 205761 steps with 449 atoms, finish time Wed Dec 28 03:34:50 2022


Pair  time (%) = 0.387382 (0.0190692)
Neigh time (%) = 5.37301 (0.264491)
Comm  time (%) = 8.58278 (0.422494)
Outpt time (%) = 0.000553859 (2.72641e-05)
Other time (%) = 2017.11 (99.2939)

Nlocal:    11.225 ave 125 max 0 min
Histogram: 32 2 2 2 0 0 0 0 1 1
Nghost:    1.7 ave 16 max 0 min
Histogram: 30 5 0 2 0 0 1 1 0 1
Neighs:    0.225 ave 3 max 0 min
Histogram: 33 0 0 6 0 0 0 0 0 1

Total # of neighbors = 9
Ave neighs/atom = 0.0200445
Neighbor list builds = 6418
Dangerous builds = 0
Setting up run at Wed Dec 28 03:34:50 2022

Memory usage per processor = 960.195 Mbytes
    Step    Atoms         KinEng            CPU 
32510270      449     0.17610998              0 
32716031      445     0.19251645       2028.678 
Loop time of 2028.68 on 40 procs for 205761 steps with 445 atoms, finish time Wed Dec 28 04:08:39 2022


Pair  time (%) = 0.387053 (0.0190791)
Neigh time (%) = 5.59087 (0.275592)
Comm  time (%) = 10.6699 (0.525954)
Outpt time (%) = 0.000334025 (1.64652e-05)
Other time (%) = 2012.03 (99.1794)

Nlocal:    11.125 ave 125 max 0 min
Histogram: 32 2 2 2 0 0 0 0 1 1
Nghost:    1.575 ave 16 max 0 min
Histogram: 31 5 0 0 1 0 1 0 1 1
Neighs:    0.175 ave 2 max 0 min
Histogram: 36 0 0 0 0 1 0 0 0 3

Total # of neighbors = 7
Ave neighs/atom = 0.0157303
Neighbor list builds = 6693
Dangerous builds = 0
Setting up run at Wed Dec 28 04:08:39 2022

Memory usage per processor = 960.195 Mbytes
    Step    Atoms         KinEng            CPU 
32716031      445     0.19251645              0 
32921792      440      0.1915886      2030.2376 
Loop time of 2030.24 on 40 procs for 205761 steps with 440 atoms, finish time Wed Dec 28 04:42:30 2022


Pair  time (%) = 0.389277 (0.019174)
Neigh time (%) = 5.7207 (0.281775)
Comm  time (%) = 10.0573 (0.495378)
Outpt time (%) = 0.000565602 (2.78589e-05)
Other time (%) = 2014.07 (99.2036)

Nlocal:    11 ave 118 max 0 min
Histogram: 32 2 2 1 1 0 0 0 0 2
Nghost:    1.725 ave 18 max 0 min
Histogram: 30 5 0 1 1 1 0 1 0 1
Neighs:    0.2 ave 3 max 0 min
Histogram: 35 0 0 3 0 0 1 0 0 1

Total # of neighbors = 8
Ave neighs/atom = 0.0181818
Neighbor list builds = 6874
Dangerous builds = 369
Setting up run at Wed Dec 28 04:42:30 2022

Memory usage per processor = 960.195 Mbytes
    Step    Atoms         KinEng            CPU 
32921792      440      0.1915886              0 
33127553      436     0.22065981      2034.3863 
Loop time of 2034.39 on 40 procs for 205761 steps with 436 atoms, finish time Wed Dec 28 05:16:24 2022


Pair  time (%) = 0.392084 (0.0192728)
Neigh time (%) = 6.1362 (0.301624)
Comm  time (%) = 11.5542 (0.567943)
Outpt time (%) = 0.000293316 (1.44179e-05)
Other time (%) = 2016.3 (99.1111)

Nlocal:    10.9 ave 117 max 0 min
Histogram: 32 2 2 2 0 0 0 0 0 2
Nghost:    1.8 ave 20 max 0 min
Histogram: 30 5 1 0 2 0 1 0 0 1
Neighs:    0.25 ave 3 max 0 min
Histogram: 34 0 0 3 0 0 2 0 0 1

Total # of neighbors = 10
Ave neighs/atom = 0.0229358
Neighbor list builds = 7340
Dangerous builds = 272
Setting up run at Wed Dec 28 05:16:24 2022

Memory usage per processor = 960.195 Mbytes
    Step    Atoms         KinEng            CPU 
33127553      436     0.22065981              0 
33333314      434     0.19158888      2024.5836 
Loop time of 2024.58 on 40 procs for 205761 steps with 434 atoms, finish time Wed Dec 28 05:50:09 2022


Pair  time (%) = 0.392762 (0.0193996)
Neigh time (%) = 5.33473 (0.263498)
Comm  time (%) = 10.1529 (0.501483)
Outpt time (%) = 0.000535728 (2.64611e-05)
Other time (%) = 2008.7 (99.2156)

Nlocal:    10.85 ave 117 max 0 min
Histogram: 32 1 3 2 0 0 0 0 0 2
Nghost:    1.55 ave 17 max 0 min
Histogram: 31 5 0 0 0 2 0 1 0 1
Neighs:    0.375 ave 4 max 0 min
Histogram: 34 0 2 0 0 1 0 1 0 2

Total # of neighbors = 15
Ave neighs/atom = 0.0345622
Neighbor list builds = 6378
Dangerous builds = 0
Setting up run at Wed Dec 28 05:50:09 2022

Memory usage per processor = 960.195 Mbytes
    Step    Atoms         KinEng            CPU 
33333314      434     0.19158888              0 
33539075      430     0.27453086      2053.0997 
Loop time of 2053.1 on 40 procs for 205761 steps with 430 atoms, finish time Wed Dec 28 06:24:22 2022


Pair  time (%) = 0.391022 (0.0190454)
Neigh time (%) = 8.17555 (0.398205)
Comm  time (%) = 12.3735 (0.602674)
Outpt time (%) = 0.000749752 (3.6518e-05)
Other time (%) = 2032.16 (98.98)

Nlocal:    10.75 ave 119 max 0 min
Histogram: 32 1 4 1 0 0 0 0 0 2
Nghost:    1.725 ave 16 max 0 min
Histogram: 31 5 0 0 0 0 1 0 1 2
Neighs:    0.4 ave 4 max 0 min
Histogram: 34 0 2 0 0 0 0 2 0 2

Total # of neighbors = 16
Ave neighs/atom = 0.0372093
Neighbor list builds = 9771
Dangerous builds = 22
Setting up run at Wed Dec 28 06:24:22 2022

Memory usage per processor = 960.195 Mbytes
    Step    Atoms         KinEng            CPU 
33539075      430     0.27453086              0 
slurmstepd: error: *** JOB 14676768 ON r03c03 CANCELLED AT 2022-12-28T08:33:15 DUE TO TIME LIMIT ***
srun: Job step aborted: Waiting up to 62 seconds for job step to finish.
slurmstepd: error: *** STEP 14676768.0 ON r03c03 CANCELLED AT 2022-12-28T08:33:15 DUE TO TIME LIMIT ***

SIGINT/SIGTERM caught - Writing restart on next occasion and quitting after that.

SIGINT/SIGTERM caught - Writing restart on next occasion and quitting after that.
337
SIGINT/SIGTERM caught - Writing restart on next occasion and quitting after that.

SIGINT/SIGTERM caught - Writing restart on next occasion and quitting after that.

SIGINT/SIGTERM caught - Writing restart on next occasion and quitting after that.

SIGINT/SIGTERM caught - Writing restart on next occasion and quitting after that.

SIGINT/SIGTERM caught - Writing restart on next occasion and quitting after that.

SIGINT/SIGTERM caught - Writing restart on next occasion and quitting after that.

SIGINT/SIGTERM caught - Writing restart on next occasion and quitting after that.

SIGINT/SIGTERM caught - Writing restart on next occasion and quitting after that.

SIGINT/SIGTERM caught - Writing restart on next occasion and quitting after that.

SIGINT/SIGTERM caught - Writing restart on next occasion and quitting after that.

SIGINT/SIGTERM caught - Writing restart on next occasion and quitting after that.

SIGINT/SIGTERM caught - Writing restart on next occasion and quitting after that.

SIGINT/SIGTERM caught - Writing restart on next occasion and quitting after that.

SIGINT/SIGTERM caught - Writing restart on next occasion and quitting after that.

SIGINT/SIGTERM caught - Writing restart on next occasion and quitting after that.

SIGINT/SIGTERM caught - Writing restart on next occasion and quitting after that.

SIGINT/SIGTERM caught - Writing restart on next occasion and quitting after that.

SIGINT/SIGTERM caught - Writing restart on next occasion and quitting after that.

SIGINT/SIGTERM caught - Writing restart on next occasion and quitting after that.

SIGINT/SIGTERM caught - Writing restart on next occasion and quitting after that.

SIGINT/SIGTERM caught - Writing restart on next occasion and quitting after that.

SIGINT/SIGTERM caught - Writing restart on next occasion and quitting after that.

SIGINT/SIGTERM caught - Writing restart on next occasion and quitting after that.

SIGINT/SIGTERM caught - Writing restart on next occasion and quitting after that.

SIGINT/SIGTERM caught - Writing restart on next occasion and quitting after that.

SIGINT/SIGTERM caught - Writing restart on next occasion and quitting after that.

SIGINT/SIGTERM caught - Writing restart on next occasion and quitting after that.

SIGINT/SIGTERM caught - Writing restart on next occasion and quitting after that.

SIGINT/SIGTERM caught - Writing restart on next occasion and quitting after that.

SIGINT/SIGTERM caught - Writing restart on next occasion and quitting after that.

SIGINT/SIGTERM caught - Writing restart on next occasion and quitting after that.

SIGINT/SIGTERM caught - Writing restart on next occasion and quitting after that.

SIGINT/SIGTERM caught - Writing restart on next occasion and quitting after that.

SIGINT/SIGTERM caught - Writing restart on next occasion and quitting after that.

SIGINT/SIGTERM caught - Writing restart on next occasion and quitting after that.

SIGINT/SIGTERM caught - Writing restart on next occasion and quitting after that.

SIGINT/SIGTERM caught - Writing restart on next occasion and quitting after that.

SIGINT/SIGTERM caught - Writing restart on next occasion and quitting after that.

SIGINT/SIGTERM caught - Writing restart on next occasion and quitting after that.

SIGINT/SIGTERM caught - Writing restart on next occasion and quitting after that.

SIGINT/SIGTERM caught - Writing restart on next occasion and quitting after that.

SIGINT/SIGTERM caught - Writing restart on next occasion and quitting after that.

SIGINT/SIGTERM caught - Writing restart on next occasion and quitting after that.

SIGINT/SIGTERM caught - Writing restart on next occasion and quitting after that.

SIGINT/SIGTERM caught - Writing restart on next occasion and quitting after that.

SIGINT/SIGTERM caught - Writing restart on next occasion and quitting after that.

SIGINT/SIGTERM caught - Writing restart on next occasion and quitting after that.

SIGINT/SIGTERM caught - Writing restart on next occasion and quitting after that.

SIGINT/SIGTERM caught - Writing restart on next occasion and quitting after that.

SIGINT/SIGTERM caught - Writing restart on next occasion and quitting after that.

SIGINT/SIGTERM caught - Writing restart on next occasion and quitting after that.

SIGINT/SIGTERM caught - Writing restart on next occasion and quitting after that.

SIGINT/SIGTERM caught - Writing restart on next occasion and quitting after that.

SIGINT/SIGTERM caught - Writing restart on next occasion and quitting after that.

SIGINT/SIGTERM caught - Writing restart on next occasion and quitting after that.

SIGINT/SIGTERM caught - Writing restart on next occasion and quitting after that.

SIGINT/SIGTERM caught - Writing restart on next occasion and quitting after that.

SIGINT/SIGTERM caught - Writing restart on next occasion and quitting after that.

SIGINT/SIGTERM caught - Writing restart on next occasion and quitting after that.

SIGINT/SIGTERM caught - Writing restart on next occasion and quitting after that.

SIGINT/SIGTERM caught - Writing restart on next occasion and quitting after that.

SIGINT/SIGTERM caught - Writing restart on next occasion and quitting after that.

SIGINT/SIGTERM caught - Writing restart on next occasion and quitting after that.

SIGINT/SIGTERM caught - Writing restart on next occasion and quitting after that.

SIGINT/SIGTERM caught - Writing restart on next occasion and quitting after that.

SIGINT/SIGTERM caught - Writing restart on next occasion and quitting after that.

SIGINT/SIGTERM caught - Writing restart on next occasion and quitting after that.

SIGINT/SIGTERM caught - Writing restart on next occasion and quitting after that.

SIGINT/SIGTERM caught - Writing restart on next occasion and quitting after that.

SIGINT/SIGTERM caught - Writing restart on next occasion and quitting after that.

SIGINT/SIGTERM caught - Writing restart on next occasion and quitting after that.

SIGINT/SIGTERM caught - Writing restart on next occasion and quitting after that.

SIGINT/SIGTERM caught - Writing restart on next occasion and quitting after that.

SIGINT/SIGTERM caught - Writing restart on next occasion and quitting after that.

SIGINT/SIGTERM caught - Writing restart on next occasion and quitting after that.

SIGINT/SIGTERM caught - Writing restart on next occasion and quitting after that.

SIGINT/SIGTERM caught - Writing restart on next occasion and quitting after that.

SIGINT/SIGTERM caught - Writing restart on next occasion and quitting after that.
